% Model:              Baseline_Circular_BIG.mph
% Version:            COMSOL 6.0.0.405
% Date:               Apr 15 2024, 21:47
% Dimension:          2
% Nodes:              40401
% Expressions:        1
% Description:        Surface
% X                       Y                        Dependent variable Phid
0                         0                        -0.2033897561168156
0.04999999999993898       0                        -0.20119479256718076
0.09999999999987796       0                        -0.19830545576660105
0                         0.05                     -0.19775563359820503
0.04999999999993929       0.0499999999999997       -0.19069052815972162
0.09999999999987857       0.04999999999999939      -0.18150132710442007
0                         0.1                      -0.18025919671824076
0.0499999999999396        0.0999999999999994       -0.16009949837276022
0.0999999999998792        0.09999999999999878      -0.13472407436540756
0                         0.15000000000000002      -0.13756597623660527
0.04999999999993991       0.14999999999999938      -0.08899269306578327
0.09999999999987982       0.14999999999999877      -0.032700407051399434
0                         0.2                      -0.054165772174967194
0.04999999999994022       0.1999999999999994       0.03417310284939986
0.09999999999988043       0.19999999999999876      0.1202155039032539
0.14999999999987856       0                        -0.19512447395960128
0.19999999999987916       0                        -0.19235279577397718
0.14999999999987915       0.04999999999999909      -0.17153802700004672
0.19999999999987972       0.04999999999999878      -0.16314817514136482
0.14999999999987976       0.09999999999999817      -0.10820357594015012
0.1999999999998803        0.09999999999999756      -0.08681360993756868
0                         0.25                     0.06913542004211874
0.04999999999994051       0.24999999999999942      0.1806969762183817
0.09999999999988102       0.24999999999999878      0.26490966868460514
0                         0.3                      0.19682704530278788
0.04999999999994079       0.2999999999999994       0.2963659257191595
0.09999999999988159       0.2999999999999988       0.35418364508813255
0.1499999999998804        0.1499999999999982       0.020063260979851224
0.19999999999988097       0.14999999999999758      0.058403068930342784
0.14999999999988103       0.19999999999999818      0.1865488291333153
0.19999999999988163       0.19999999999999762      0.22771413746536534
0.24999999999987976       0                        -0.190736298062788
0.29999999999988036       0                        -0.1907062402014258
0.24999999999988035       0.049999999999998476     -0.15878118728340834
0.299999999999881         0.04999999999999818      -0.15979146163243288
0.24999999999988093       0.09999999999999695      -0.07635745518472249
0.2999999999998816        0.09999999999999636      -0.07972070058451454
0                         0.35                     0.2914040986775499
0.049999999999941105      0.34999999999999937      0.3619384522469755
0.09999999999988221       0.34999999999999876      0.39484753259479516
0                         0.3999999999999999       0.34741571680955907
0.04999999999994141       0.39999999999999936      0.3931276810979816
0.09999999999988282       0.39999999999999875      0.41054772053230126
0.14999999999988162       0.2499999999999982       0.31649590821396784
0.19999999999988222       0.2499999999999976       0.34362790436823853
0.1499999999998822        0.2999999999999982       0.3831842761848782
0.19999999999988283       0.2999999999999976       0.39628354981638814
0.24999999999988157       0.14999999999999697      0.07566464829093904
0.2999999999998822        0.14999999999999633      0.06954837157688581
0.2499999999998822        0.19999999999999696      0.24455472495651556
0.2999999999998828        0.19999999999999632      0.23836626581208697
0.34999999999988096       0                        -0.19218310798422325
0.39999999999988156       0                        -0.19460003544518162
0.3499999999998816        0.049999999999997866     -0.1658112957001281
0.39999999999988217       0.04999999999999756      -0.17480617157576225
0.3499999999998822        0.09999999999999573      -0.09615872424108937
0.3999999999998828        0.09999999999999512      -0.12094664412045276
0                         0.4499999999999999       0.37632820200181544
0.04999999999994173       0.4499999999999993       0.406858429970207
0.09999999999988346       0.44999999999999873      0.4162106606926782
0                         0.4999999999999999       0.38958219184152004
0.04999999999994204       0.49999999999999933      0.4123386523136298
0.09999999999988408       0.4999999999999988       0.417976170979224
0.14999999999988278       0.34999999999999815      0.4088127269244296
0.1999999999998834        0.34999999999999754      0.41416567664359966
0.1499999999998834        0.39999999999999813      0.41655812478728094
0.199999999999884         0.3999999999999975       0.41823054058183473
0.24999999999988282       0.24999999999999697      0.3539222111271579
0.29999999999988336       0.24999999999999634      0.35014656481726836
0.2499999999998834        0.299999999999997        0.4010158121713899
0.29999999999988397       0.2999999999999964       0.39943594880391975
0.3499999999998828        0.14999999999999575      0.04021984424966163
0.39999999999988345       0.14999999999999516      -0.007890048487945854
0.3499999999998834        0.19999999999999576      0.20789979423313845
0.39999999999988406       0.1999999999999952       0.15059026696661454
0.44999999999988216       0                        -0.1972208438326145
0.49999999999988276       0                        -0.19947335588201306
0.4499999999998828        0.04999999999999725      -0.18419525699407316
0.49999999999988337       0.049999999999996936     -0.19204089110098843
0.4499999999998834        0.0999999999999945       -0.14744514516434173
0.499999999999884         0.09999999999999387      -0.17014917006464444
0                         0.5499999999999998       0.3938429835134525
0.049999999999942354      0.5499999999999994       0.414128860214636
0.09999999999988471       0.5499999999999987       0.41865339776581184
0                         0.5999999999999999       0.3904312881404131
0.04999999999994266       0.5999999999999993       0.41297885308521926
0.09999999999988532       0.5999999999999988       0.4186142427018907
0.149999999999884         0.4499999999999981       0.41836152518273373
0.1999999999998846        0.4499999999999975       0.4183418254434164
0.14999999999988464       0.49999999999999817      0.41844187812617906
0.19999999999988521       0.49999999999999756      0.41771541767145987
0.24999999999988398       0.349999999999997        0.4160476659295022
0.2999999999998846        0.3499999999999963       0.415665917364555
0.24999999999988456       0.3999999999999969       0.4188291570036369
0.29999999999988514       0.39999999999999625      0.41902902685447024
0.34999999999988396       0.24999999999999578      0.3307219779313498
0.3999999999998846        0.24999999999999523      0.2882737695542963
0.34999999999988457       0.2999999999999958       0.3903650299727838
0.39999999999988517       0.2999999999999952       0.3670951257738133
0.44999999999988394       0.14999999999999453      -0.06519343697536412
0.49999999999988454       0.14999999999999392      -0.118864568250814
0.4499999999998846        0.19999999999999457      0.06804245579792466
0.4999999999998851        0.19999999999999393      -0.02463576800643012
0.5499999999998834        0                        -0.20109881396672494
0.599999999999884         0                        -0.20205419299294483
0.5499999999998839        0.049999999999996644     -0.1975050056992128
0.5999999999998846        0.04999999999999635      -0.2007246590152573
0.5499999999998846        0.09999999999999329      -0.18621107625423577
0.5999999999998853        0.0999999999999927       -0.1957766363853904
0                         0.6499999999999998       0.3771018464222763
0.04999999999994295       0.6499999999999992       0.4073815026260263
0.0999999999998859        0.6499999999999987       0.41684211335024035
0                         0.6999999999999997       0.345407631195599
0.04999999999994325       0.6999999999999992       0.3910706717676294
0.0999999999998865        0.6999999999999986       0.40899135022378585
0.14999999999988525       0.5499999999999982       0.41863621346822644
0.19999999999988582       0.5499999999999975       0.4177083357615083
0.14999999999988586       0.5999999999999981       0.4191153050606142
0.1999999999998864        0.5999999999999974       0.4183811105405139
0.24999999999988518       0.4499999999999969       0.418371113727682
0.29999999999988575       0.4499999999999963       0.41884180408613264
0.24999999999988579       0.4999999999999969       0.4175070785450584
0.29999999999988636       0.4999999999999963       0.4180620607729846
0.3499999999998852        0.3499999999999958       0.4122200031893558
0.3999999999998858        0.34999999999999526      0.4010226765002242
0.34999999999988574       0.3999999999999958       0.41826039654382346
0.39999999999988634       0.3999999999999953       0.4132899605993179
0.44999999999988516       0.24999999999999462      0.21255223771783943
0.4999999999998857        0.24999999999999395      0.10320361278951751
0.4499999999998857        0.2999999999999946       0.3168694958826684
0.4999999999998863        0.299999999999994        0.22349432768008612
0.5499999999998851        0.1499999999999933       -0.15876817357141434
0.5999999999998857        0.14999999999999275      -0.18314237934919372
0.5499999999998857        0.19999999999999335      -0.10382130562832612
0.5999999999998863        0.1999999999999928       -0.15663826243041085
0.6499999999998846        0                        -0.20224371903718807
0.6999999999998852        0                        -0.20102857600177926
0.6499999999998852        0.049999999999996034     -0.20222572689477872
0.6999999999998858        0.049999999999995715     -0.20236661331611636
0.6499999999998859        0.09999999999999207      -0.20054553126776012
0.6999999999998865        0.09999999999999143      -0.20236841661846877
0                         0.7499999999999998       0.2809701551855184
0.04999999999994355       0.7499999999999991       0.3513401103939036
0.0999999999998871        0.7499999999999987       0.38553818894927283
0                         0.7999999999999997       0.17232342325190353
0.04999999999994385       0.7999999999999992       0.2674412473055973
0.0999999999998877        0.7999999999999986       0.32534024137776296
0.14999999999988647       0.649999999999998        0.4191102129686275
0.19999999999988702       0.6499999999999975       0.4190471012176051
0.14999999999988706       0.699999999999998        0.41534122487999
0.19999999999988763       0.6999999999999974       0.41686052096269066
0.24999999999988637       0.5499999999999969       0.41740493381655414
0.2999999999998869        0.5499999999999963       0.4178896598664407
0.24999999999988698       0.5999999999999969       0.418049362538164
0.2999999999998875        0.5999999999999963       0.41823128535403553
0.34999999999988635       0.44999999999999574      0.4192888667970455
0.39999999999988695       0.44999999999999524      0.417228387188784
0.34999999999988696       0.4999999999999957       0.4189288261003084
0.39999999999988756       0.49999999999999517      0.41788384576444965
0.4499999999998863        0.3499999999999946       0.37203679788054134
0.49999999999988687       0.349999999999994        0.3053280347402948
0.44999999999988693       0.39999999999999464      0.3968270148802428
0.4999999999998875        0.39999999999999397      0.35074535395358747
0.5499999999998864        0.24999999999999337      -0.0163771869783815
0.5999999999998868        0.2499999999999928       -0.11079648419555724
0.5499999999998869        0.2999999999999934       0.08799445335762786
0.5999999999998875        0.29999999999999283      -0.04648549709713759
0.6499999999998863        0.1499999999999921       -0.19560336436006412
0.6999999999998869        0.14999999999999147      -0.2008593117700344
0.6499999999998869        0.19999999999999216      -0.18479883791172685
0.6999999999998875        0.19999999999999152      -0.19710507940151803
0.7499999999998858        0                        -0.19683879494850284
0.7999999999998864        0                        -0.18652667940026874
0.7499999999998864        0.049999999999995416     -0.20097600266764912
0.7999999999998869        0.04999999999999512      -0.1970962060169946
0.749999999999887         0.09999999999999083      -0.20249208102514393
0.7999999999998875        0.09999999999999024      -0.2013293745396317
0                         0.8499999999999996       0.034863892242588214
0.04999999999994416       0.8499999999999992       0.12971871276802002
0.09999999999988832       0.8499999999999985       0.2035785712734328
0                         0.8999999999999997       -0.083983162221181
0.04999999999994447       0.8999999999999991       -0.020752298526044436
0.09999999999988894       0.8999999999999986       0.03978405346719651
0.14999999999988767       0.749999999999998        0.40034352823087394
0.19999999999988824       0.7499999999999974       0.4052668868530482
0.14999999999988828       0.799999999999998        0.3548217283956578
0.19999999999988885       0.7999999999999975       0.3662470637302602
0.2499999999998876        0.6499999999999968       0.418706454372111
0.29999999999988813       0.6499999999999964       0.41815334388363085
0.2499999999998882        0.6999999999999968       0.4164828371727179
0.29999999999988874       0.6999999999999963       0.4142081348235293
0.3499999999998875        0.5499999999999957       0.4186400348757469
0.3999999999998881        0.5499999999999952       0.4173138135616617
0.3499999999998881        0.5999999999999958       0.4182159874671178
0.3999999999998887        0.5999999999999952       0.4151093212714872
0.4499999999998875        0.4499999999999946       0.40692308771963653
0.4999999999998881        0.44999999999999407      0.37234803230784247
0.4499999999998881        0.49999999999999467      0.4097696184396817
0.49999999999988864       0.4999999999999941       0.37956851330902197
0.5499999999998875        0.3499999999999934       0.18175763620443888
0.5999999999998881        0.3499999999999929       0.025670830964619227
0.549999999999888         0.39999999999999347      0.24764190170162995
0.5999999999998886        0.3999999999999929       0.08859390632604963
0.6499999999998874        0.24999999999999217      -0.1652956825214499
0.699999999999888         0.24999999999999156      -0.1901384057161597
0.649999999999888         0.2999999999999922       -0.13582801119446053
0.6999999999998886        0.2999999999999916       -0.1794426875627058
0.7499999999998874        0.14999999999999086      -0.20254792176478867
0.799999999999888         0.1499999999999903       -0.20261987133921627
0.7499999999998881        0.19999999999999094      -0.20155531087467227
0.7999999999998886        0.19999999999999035      -0.20265540068944815
0.849999999999887         0                        -0.16577918868063604
0.8999999999998876        0                        -0.13091360006476482
0.8499999999998875        0.04999999999999482      -0.18914237280309815
0.8999999999998881        0.04999999999999452      -0.1755041611330289
0.8499999999998881        0.09999999999998964      -0.198716219497976
0.8999999999998887        0.09999999999998904      -0.194274916856681
0                         0.9499999999999997       -0.15493467792456384
0.04999999999994478       0.9499999999999992       -0.12572393438129997
0.09999999999988957       0.9499999999999986       -0.09452217842851425
0                         0.9999999999999997       -0.18734598804948274
0.04999999999994509       0.9999999999999991       -0.1770667884015487
0.09999999999989018       0.9999999999999987       -0.16568294252141907
0.1499999999998889        0.8499999999999981       0.2489245884802571
0.19999999999988943       0.8499999999999974       0.2689371846499742
0.1499999999998895        0.899999999999998        0.08443065853871852
0.19999999999989004       0.8999999999999975       0.10655972257456373
0.24999999999988876       0.7499999999999969       0.4047443764052257
0.2999999999998893        0.7499999999999962       0.3986526706726937
0.24999999999988937       0.7999999999999969       0.3653192622844048
0.29999999999988985       0.7999999999999963       0.3518103942036409
0.34999999999988873       0.6499999999999958       0.41629080311044403
0.39999999999988933       0.6499999999999952       0.40905871493350104
0.3499999999998893        0.6999999999999957       0.40819258293517935
0.3999999999998899        0.6999999999999952       0.3923459906217185
0.4499999999998887        0.5499999999999946       0.40852764481559756
0.49999999999988926       0.549999999999994        0.3768517667795156
0.44999999999988927       0.5999999999999945       0.40241513802743567
0.49999999999988987       0.599999999999994        0.36295348922802745
0.5499999999998886        0.4499999999999935       0.2845850511949043
0.5999999999998892        0.44999999999999285      0.13057221199111152
0.5499999999998892        0.49999999999999345      0.2985226125982146
0.5999999999998897        0.4999999999999928       0.14819189423556609
0.6499999999998886        0.34999999999999226      -0.09901576625284295
0.6999999999998892        0.34999999999999165      -0.16572230242335637
0.6499999999998891        0.3999999999999923       -0.06239886015208807
0.6999999999998897        0.3999999999999917       -0.1514032479358808
0.7499999999998886        0.249999999999991        -0.1995107107078703
0.7999999999998892        0.24999999999999042      -0.2021987216738838
0.7499999999998892        0.29999999999999105      -0.19633188573666618
0.7999999999998898        0.2999999999999905       -0.20147653309052654
0.8499999999998886        0.14999999999998967      -0.20198529409181076
0.8999999999998892        0.14999999999998906      -0.20090511915251874
0.8499999999998892        0.1999999999999897       -0.20273017485837508
0.8999999999998898        0.19999999999998908      -0.20263420952356728
0.9499999999998882        0                        -0.08269056143693448
0.9999999999998888        0                        -0.02971583331910097
0.9499999999998887        0.0499999999999942       -0.15587877801536573
0.9999999999998893        0.04999999999999388      -0.13289779192138668
0.9499999999998893        0.0999999999999884       -0.1879794621034176
0.9999999999998899        0.09999999999998777      -0.1806913862935613
0                         1.0499999999999996       -0.19953193942870265
0.049999999999945394      1.049999999999999        -0.19658499073576552
0.09999999999989079       1.0499999999999985       -0.19319223253284215
0                         1.0999999999999996       -0.20303163607239674
0.049999999999945706      1.099999999999999        -0.20247546060750898
0.09999999999989141       1.0999999999999983       -0.20166105709423926
0.1499999999998901        0.949999999999998        -0.0687424644042368
0.19999999999989065       0.9499999999999975       -0.055000234678952015
0.14999999999989072       0.9999999999999981       -0.1559244826750913
0.19999999999989124       0.9999999999999976       -0.1506699527356561
0.24999999999988998       0.8499999999999969       0.2672249734621064
0.29999999999989047       0.8499999999999963       0.24391850519529093
0.2499999999998906        0.899999999999997        0.10430999870596719
0.29999999999989113       0.8999999999999965       0.07848353503633716
0.3499999999998899        0.7499999999999958       0.3838507025014489
0.3999999999998905        0.7499999999999951       0.35153202915608917
0.3499999999998905        0.7999999999999957       0.32133348686260726
0.3999999999998911        0.7999999999999952       0.26483823535745427
0.4499999999998899        0.6499999999999946       0.387722686139978
0.4999999999998904        0.649999999999994        0.33248119073085824
0.4499999999998905        0.6999999999999946       0.3546821520149137
0.49999999999989103       0.6999999999999941       0.27486365669237417
0.5499999999998898        0.5499999999999935       0.293294280660959
0.5999999999998903        0.5499999999999928       0.14123417991036147
0.5499999999998904        0.5999999999999934       0.26792636816489196
0.5999999999998908        0.5999999999999929       0.11035816424812482
0.6499999999998898        0.4499999999999923       -0.03464814180432285
0.6999999999998905        0.44999999999999174      -0.1399718398417175
0.6499999999998904        0.4999999999999923       -0.02211524567240939
0.6999999999998912        0.4999999999999918       -0.1347493042219698
0.7499999999998898        0.34999999999999104      -0.19222850008102488
0.7999999999998904        0.34999999999999043      -0.2006154341040433
0.7499999999998903        0.39999999999999103      -0.18792022210756487
0.7999999999998909        0.39999999999999036      -0.1997885228183751
0.8499999999998897        0.24999999999998979      -0.20278841198508127
0.8999999999998903        0.24999999999998915      -0.20296551263931414
0.8499999999998904        0.29999999999998983      -0.20276678654342536
0.8999999999998909        0.2999999999999892       -0.2030420581510292
0.9499999999998898        0.14999999999998845      -0.19950765499244025
0.9999999999998904        0.14999999999998784      -0.1980320683733157
0.9499999999998904        0.1999999999999885       -0.20269871146982066
0.999999999999891         0.1999999999999879       -0.20298660175901048
1.0499999999998892        0                        0.01526134317772943
1.09999999999989          0                        0.04148710012066384
1.04999999999989          0.049999999999993584     -0.11190595101831538
1.0999999999998904        0.049999999999993286     -0.09909826568292118
1.0499999999998906        0.09999999999998717      -0.1741674224175834
1.099999999999891         0.09999999999998657      -0.1704792077454767
0                         1.1499999999999995       -0.20322884907272493
0.049999999999946004      1.149999999999999        -0.20375483330230082
0.09999999999989201       1.1499999999999986       -0.20382541940339605
0                         1.1999999999999995       -0.20074385965156377
0.0499999999999463        1.199999999999999        -0.20296572783209255
0.0999999999998926        1.1999999999999986       -0.20385488089691298
0.14999999999989133       1.049999999999998        -0.19027599028845935
0.19999999999989185       1.0499999999999976       -0.1888217132420226
0.14999999999989194       1.0999999999999979       -0.20095983492959135
0.19999999999989246       1.0999999999999974       -0.2007291023733724
0.2499999999998912        0.9499999999999971       -0.05676158459085389
0.2999999999998917        0.9499999999999964       -0.07329929686518821
0.24999999999989175       0.9999999999999969       -0.15168408228325014
0.2999999999998923        0.9999999999999962       -0.15865088532972116
0.34999999999989106       0.8499999999999959       0.19629914773513243
0.39999999999989166       0.8499999999999952       0.12303539917905419
0.3499999999998916        0.8999999999999959       0.03156054195916203
0.39999999999989216       0.8999999999999952       -0.02889710249668564
0.44999999999989104       0.7499999999999946       0.2873604086212433
0.49999999999989164       0.749999999999994        0.17968548560650272
0.44999999999989165       0.7999999999999946       0.17364250041520937
0.4999999999998922        0.799999999999994        0.056236372683906084
0.549999999999891         0.6499999999999935       0.21810792166412102
0.5999999999998915        0.6499999999999928       0.05721480498538932
0.5499999999998916        0.6999999999999935       0.1406983877277628
0.5999999999998922        0.6999999999999929       -0.010821405268150498
0.649999999999891         0.5499999999999923       -0.027499570281116797
0.6999999999998918        0.5499999999999918       -0.13742162396135413
0.6499999999998916        0.5999999999999923       -0.049299265445320185
0.6999999999998924        0.5999999999999919       -0.14709026920639537
0.7499999999998909        0.4499999999999911       -0.1845258650668024
0.7999999999998915        0.4499999999999904       -0.1992545572573383
0.7499999999998916        0.4999999999999911       -0.18314586398891006
0.799999999999892         0.49999999999999045      -0.19925323845745224
0.8499999999998911        0.3499999999999898       -0.20286455917370352
0.8999999999998916        0.34999999999998926      -0.20323683220480043
0.8499999999998915        0.3999999999999898       -0.20307818778655853
0.8999999999998922        0.3999999999999893       -0.20349437088160705
0.9499999999998909        0.24999999999998856      -0.20338335538713614
0.9999999999998915        0.24999999999998798      -0.2040593408417121
0.9499999999998915        0.2999999999999886       -0.20338858480362523
0.9999999999998921        0.29999999999998805      -0.20375997585165612
1.049999999999891         0.14999999999998725      -0.19692756873322692
1.0999999999998915        0.14999999999998664      -0.19669465239496373
1.0499999999998915        0.1999999999999873       -0.2035004514930546
1.099999999999892         0.1999999999999867       -0.20416296253024388
1.1499999999998907        0                        0.0439797556082571
1.1999999999998912        0                        0.023148719285529352
1.149999999999891         0.04999999999999299      -0.09847397147176142
1.1999999999998918        0.04999999999999269      -0.11002914441275859
1.1499999999998916        0.09999999999998598      -0.17103682437215714
1.1999999999998923        0.09999999999998538      -0.17577909642948386
0                         1.2499999999999996       -0.19353459194058842
0.049999999999946615      1.2499999999999991       -0.20012665926418136
0.09999999999989323       1.2499999999999987       -0.20303491123182937
0                         1.2999999999999994       -0.17625947845237924
0.04999999999994692       1.299999999999999        -0.19312707328907522
0.09999999999989384       1.2999999999999985       -0.2008115237293609
0.14999999999989252       1.149999999999998        -0.2037767952169743
0.19999999999989304       1.1499999999999975       -0.2038666028877696
0.1499999999998931        1.199999999999998        -0.20414562933665442
0.1999999999998936        1.1999999999999975       -0.2043183749594166
0.24999999999989236       1.0499999999999967       -0.189437307889468
0.2999999999998929        1.0499999999999963       -0.19200827040039595
0.24999999999989297       1.0999999999999968       -0.20117514758008026
0.2999999999998935        1.099999999999996        -0.20224174903394415
0.34999999999989223       0.949999999999996        -0.10062585794739301
0.3999999999998928        0.9499999999999953       -0.13204199649758264
0.34999999999989284       0.9999999999999958       -0.16951366966042164
0.39999999999989333       0.9999999999999953       -0.18138406625048462
0.44999999999989215       0.8499999999999946       0.030976917582824212
0.4999999999998927        0.8499999999999941       -0.06030979857718184
0.4499999999998927        0.8999999999999947       -0.09009410702956089
0.4999999999998932        0.8999999999999941       -0.14023891039793288
0.5499999999998921        0.7499999999999936       0.04195930431711749
0.5999999999998927        0.7499999999999929       -0.07960193979940866
0.5499999999998928        0.7999999999999935       -0.05614912117264179
0.5999999999998933        0.7999999999999929       -0.13547523295313024
0.649999999999892         0.6499999999999924       -0.08278023565025136
0.6999999999998927        0.6499999999999918       -0.16093802941647847
0.6499999999998926        0.6999999999999923       -0.12024964725329254
0.6999999999998929        0.6999999999999917       -0.17543661358358334
0.7499999999998921        0.5499999999999912       -0.1843295063357598
0.7999999999998925        0.5499999999999905       -0.19987679139921927
0.7499999999998926        0.5999999999999912       -0.18772659933448368
0.7999999999998929        0.5999999999999905       -0.20099029626115378
0.849999999999892         0.44999999999998985      -0.2033741654227861
0.8999999999998927        0.4499999999999893       -0.20366210653914055
0.8499999999998926        0.4999999999999899       -0.20371017940760897
0.8999999999998931        0.49999999999998934      -0.20359617205992056
0.949999999999892         0.34999999999998865      -0.20328590893904352
0.9999999999998926        0.34999999999998804      -0.2027149826543025
0.9499999999998927        0.3999999999999887       -0.20292794111192
0.9999999999998932        0.39999999999998803      -0.2004056006723259
1.0499999999998921        0.24999999999998737      -0.20475677578788973
1.0999999999998926        0.24999999999998676      -0.20501238377937112
1.0499999999998928        0.29999999999998744      -0.20358486439048515
1.0999999999998933        0.29999999999998683      -0.20173095681238778
1.149999999999892         0.14999999999998603      -0.19761766082182317
1.1999999999998927        0.14999999999998545      -0.19954400357513646
1.1499999999998924        0.1999999999999861       -0.20479184440378426
1.1999999999998932        0.19999999999998552      -0.20510129929691576
1.2499999999998916        0                        -0.017186569333471475
1.2999999999998924        0                        -0.06823001531874319
1.2499999999998923        0.049999999999992384     -0.13039451972191438
1.2999999999998928        0.04999999999999207      -0.1538837346332668
1.249999999999893         0.09999999999998477      -0.18329339352226706