% Model:              Baseline_Circular_BIG.mph
% Version:            COMSOL 6.0.0.405
% Date:               Apr 15 2024, 21:47
% Dimension:          2
% Nodes:              40401
% Expressions:        1
% Description:        Surface
% X                       Y                        Dependent variable Phiw
0                         0                        0.7145229916574684
0.04999999999993898       0                        0.7117048728417474
0.09999999999987796       0                        0.7081877954563084
0                         0.05                     0.7068396555724271
0.04999999999993929       0.0499999999999997       0.6987121529762176
0.09999999999987857       0.04999999999999939      0.6884965362177434
0                         0.1                      0.6864802564337222
0.0499999999999396        0.0999999999999994       0.6646919160944962
0.0999999999998792        0.09999999999999878      0.6377909147581722
0                         0.15000000000000002      0.6401942693884942
0.04999999999993991       0.14999999999999938      0.5893364848050764
0.09999999999987982       0.14999999999999877      0.5309653200065787
0                         0.2                      0.5526565291022859
0.04999999999994022       0.1999999999999994       0.46136538852133274
0.09999999999988043       0.19999999999999876      0.37272080521378015
0.14999999999987856       0                        0.7045081655358227
0.19999999999987916       0                        0.7014677537496571
0.14999999999987915       0.04999999999999909      0.6777044773303157
0.19999999999987972       0.04999999999999878      0.668811939127614
0.14999999999987976       0.09999999999999817      0.6100437730403208
0.1999999999998803        0.09999999999999756      0.5878831576122124
0                         0.25                     0.4249722390392834
0.04999999999994051       0.24999999999999942      0.3098782473068235
0.09999999999988102       0.24999999999999878      0.22265541460007074
0                         0.3                      0.29302397261485236
0.04999999999994079       0.2999999999999994       0.18952774729378039
0.09999999999988159       0.2999999999999988       0.12843983022128486
0.1499999999998804        0.1499999999999982       0.47655681241475106
0.19999999999988097       0.14999999999999758      0.4371805224269431
0.14999999999988103       0.19999999999999818      0.30437849498306585
0.19999999999988163       0.19999999999999762      0.2619634382314547
0.24999999999987976       0                        0.6998748552645431
0.29999999999988036       0                        0.7001729811746189
0.24999999999988035       0.049999999999998476     0.6643535805466637
0.299999999999881         0.04999999999999818      0.6657102112426441
0.24999999999988093       0.09999999999999695      0.5772178134807844
0.2999999999998816        0.09999999999999636      0.580970597336385
0                         0.35                     0.194667726654069
0.049999999999941105      0.34999999999999937      0.119910329381972
0.09999999999988221       0.34999999999999876      0.08359373640495928
0                         0.3999999999999999       0.13561118420886395
0.04999999999994141       0.39999999999999936      0.08552982976412815
0.09999999999988282       0.39999999999999875      0.06464161374009919
0.14999999999988162       0.2499999999999982       0.16880708425865468
0.19999999999988222       0.2499999999999976       0.14029344349139836
0.1499999999998822        0.2999999999999982       0.09703830777146386
0.19999999999988283       0.2999999999999976       0.08249767678381037
0.24999999999988157       0.14999999999999697      0.4196030039231741
0.2999999999998822        0.14999999999999633      0.42616402105935586
0.2499999999998822        0.19999999999999696      0.24473053368141195
0.2999999999998828        0.19999999999999632      0.25141754083863516
0.34999999999988096       0                        0.7022483746009831
0.39999999999988156       0                        0.705452847568519
0.3499999999998816        0.049999999999997866     0.6724843744174561
0.39999999999988217       0.04999999999999756      0.6825532554402416
0.3499999999998822        0.09999999999999573      0.5983700509835389
0.3999999999998828        0.09999999999999512      0.6245948306838686
0                         0.4499999999999999       0.10454329962677628
0.04999999999994173       0.4499999999999993       0.06957335590868531
0.09999999999988346       0.44999999999999873      0.0567338441702133
0                         0.4999999999999999       0.09009827229036174
0.04999999999994204       0.49999999999999933      0.06287688061316248
0.09999999999988408       0.4999999999999988       0.053754255780554726
0.14999999999988278       0.34999999999999815      0.06716948689780483
0.1999999999998834        0.34999999999999754      0.06036099286092263
0.1499999999998834        0.39999999999999813      0.05615761902199267
0.199999999999884         0.3999999999999975       0.05303777331789465
0.24999999999988282       0.24999999999999697      0.12956869982125357
0.29999999999988336       0.24999999999999634      0.1338873857240916
0.2499999999998834        0.299999999999997        0.07732740031543187
0.29999999999988397       0.2999999999999964       0.07948522877493079
0.3499999999998828        0.14999999999999575      0.45667528145793335
0.39999999999988345       0.14999999999999516      0.5066102818726747
0.3499999999998834        0.19999999999999576      0.28325716632638615
0.39999999999988406       0.1999999999999952       0.3427346304499029
0.44999999999988216       0                        0.7089362456551276
0.49999999999988276       0                        0.7119907769589967
0.4499999999998828        0.04999999999999725      0.6932057471629451
0.49999999999988337       0.049999999999996936     0.7023459672651198
0.4499999999998834        0.0999999999999945       0.652855308857586
0.499999999999884         0.09999999999999387      0.677456736099922
0                         0.5499999999999998       0.08564569440514865
0.049999999999942354      0.5499999999999994       0.060897852345327366
0.09999999999988471       0.5499999999999987       0.052901550400724445
0                         0.5999999999999999       0.08987147589651312
0.04999999999994266       0.5999999999999993       0.06288855964007911
0.09999999999988532       0.5999999999999988       0.0538036475702436
0.149999999999884         0.4499999999999981       0.05211540210182177
0.1999999999998846        0.4499999999999975       0.050705119779138455
0.14999999999988464       0.49999999999999817      0.05083609250596435
0.19999999999988521       0.49999999999999756      0.05015359614573058
0.24999999999988398       0.349999999999997        0.058051322667734065
0.2999999999998846        0.3499999999999963       0.05903962050874063
0.24999999999988456       0.3999999999999969       0.05203015145693207
0.29999999999988514       0.39999999999999625      0.05246236546983093
0.34999999999988396       0.24999999999999578      0.15481905362528336
0.3999999999998846        0.24999999999999523      0.19968284297330152
0.34999999999988457       0.2999999999999958       0.09014573339790068
0.39999999999988517       0.2999999999999952       0.11598323605372081
0.44999999999988394       0.14999999999999453      0.5662207441726835
0.49999999999988454       0.14999999999999392      0.6224614715552619
0.4499999999998846        0.19999999999999457      0.42809768436834206
0.4999999999998851        0.19999999999999393      0.5240084724063163
0.5499999999998834        0                        0.7142175783238369
0.599999999999884         0                        0.7154436366415502
0.5499999999998839        0.049999999999996644     0.7089724866860894
0.5999999999998846        0.04999999999999635      0.7130736568100632
0.5499999999998846        0.09999999999999329      0.6953516777158091
0.5999999999998853        0.0999999999999927       0.706504313323521
0                         0.6499999999999998       0.10500939075952015
0.04999999999994295       0.6499999999999992       0.07034975644077789
0.0999999999998859        0.6499999999999987       0.057473958868877344
0                         0.6999999999999997       0.13945907361208582
0.04999999999994325       0.6999999999999992       0.08951883976360901
0.0999999999998865        0.6999999999999986       0.06824134401855658
0.14999999999988525       0.5499999999999982       0.05048515175093289
0.19999999999988582       0.5499999999999975       0.05002612205434953
0.14999999999988586       0.5999999999999981       0.05089062390428587
0.1999999999998864        0.5999999999999974       0.05026054545213102
0.24999999999988518       0.4499999999999969       0.05028887977559724
0.29999999999988575       0.4499999999999963       0.050474825610761304
0.24999999999988579       0.4999999999999969       0.04999842195913867
0.29999999999988636       0.4999999999999963       0.05012474668459816
0.3499999999998852        0.3499999999999958       0.06412491183430225
0.3999999999998858        0.34999999999999526      0.07797579416884161
0.34999999999988574       0.3999999999999958       0.05490422275160932
0.39999999999988634       0.3999999999999953       0.06257909045524411
0.44999999999988516       0.24999999999999462      0.27861413487146963
0.4999999999998857        0.24999999999999395      0.391756243456678
0.4499999999998857        0.2999999999999946       0.16967723262570528
0.4999999999998863        0.299999999999994        0.2672511583536761
0.5499999999998851        0.1499999999999933       0.6649508723112825
0.5999999999998857        0.14999999999999275      0.69169521388611
0.5499999999998857        0.19999999999999335      0.6065541017693116
0.5999999999998863        0.1999999999999928       0.662561567526227
0.6499999999998846        0                        0.7154640028315623
0.6999999999998852        0                        0.7135657177199852
0.6499999999998852        0.049999999999996034     0.7150546889891313
0.6999999999998858        0.049999999999995715     0.7151951141665724
0.6499999999998859        0.09999999999999207      0.7124703797616638
0.6999999999998865        0.09999999999999143      0.71500925553094
0                         0.7499999999999998       0.20749628569577439
0.04999999999994355       0.7499999999999991       0.13303361083036233
0.0999999999998871        0.7499999999999987       0.09558484087255117
0                         0.7999999999999997       0.3203776162423332
0.04999999999994385       0.7999999999999992       0.22147728052918486
0.0999999999998877        0.7999999999999986       0.16051888909250417
0.14999999999988647       0.649999999999998        0.0528200460577941
0.19999999999988702       0.6499999999999975       0.05154284258228994
0.14999999999988706       0.699999999999998        0.05954293846077849
0.19999999999988763       0.6999999999999974       0.05671140571245315
0.24999999999988637       0.5499999999999969       0.049989992643224034
0.2999999999998869        0.5499999999999963       0.05021186123291716
0.24999999999988698       0.5999999999999969       0.050277020437075895
0.2999999999998875        0.5999999999999963       0.05082729717904724
0.34999999999988635       0.44999999999999574      0.051728574399537486
0.39999999999988695       0.44999999999999524      0.05652842788746842
0.34999999999988696       0.4999999999999957       0.05098465020352908
0.39999999999988756       0.49999999999999517      0.05479746415580737
0.4499999999998863        0.3499999999999946       0.11058095357382294
0.49999999999988687       0.349999999999994        0.18174574902811308
0.44999999999988693       0.39999999999999464      0.0827472337590492
0.4999999999998875        0.39999999999999397      0.13343670774621974
0.5499999999998864        0.24999999999999337      0.5154057681784583
0.5999999999998868        0.2499999999999928       0.6138075754268426
0.5499999999998869        0.2999999999999934       0.40738776596252446
0.5999999999998875        0.29999999999999283      0.5465405687064787
0.6499999999998863        0.1499999999999921       0.706126888406113
0.6999999999998869        0.14999999999999147      0.7128392968712032
0.6499999999998869        0.19999999999999216      0.6934977629742483
0.6999999999998875        0.19999999999999152      0.7080093290798954
0.7499999999998858        0                        0.708145264355819
0.7999999999998864        0                        0.6960805997684539
0.7499999999998864        0.049999999999995416     0.7132878611412276
0.7999999999998869        0.04999999999999512      0.708393566256252
0.749999999999887         0.09999999999999083      0.7153262097224569
0.7999999999998875        0.09999999999999024      0.7138469045488771
0                         0.8499999999999996       0.46237257577899105
0.04999999999994416       0.8499999999999992       0.3642012587074664
0.09999999999988832       0.8499999999999985       0.28759829651427454
0                         0.8999999999999997       0.5856355835958202
0.04999999999994447       0.8999999999999991       0.519687479998066
0.09999999999988894       0.8999999999999986       0.45685397518253007
0.14999999999988767       0.749999999999998        0.07849300200001633
0.19999999999988824       0.7499999999999974       0.07229547140739861
0.14999999999988828       0.799999999999998        0.12886210926227482
0.19999999999988885       0.7999999999999975       0.1162219189304555
0.2499999999998876        0.6499999999999968       0.05159256250503978
0.29999999999988813       0.6499999999999964       0.05290251909487907
0.2499999999998882        0.6999999999999968       0.05682228341012099
0.29999999999988874       0.6999999999999963       0.059873934907327224
0.3499999999998875        0.5499999999999957       0.05121424373050621
0.3999999999998881        0.5499999999999952       0.05533436571123511
0.3499999999998881        0.5999999999999958       0.052621194229666365
0.3999999999998887        0.5999999999999952       0.05854461243540854
0.4499999999998875        0.4499999999999946       0.07059059679543993
0.4999999999998881        0.44999999999999407      0.10985985375999277
0.4499999999998881        0.49999999999999467      0.06670288984180468
0.49999999999988864       0.4999999999999941       0.10164506778252728
0.5499999999998875        0.3499999999999934       0.31035412816841296
0.5999999999998881        0.3499999999999929       0.4716512976788655
0.549999999999888         0.39999999999999347      0.24183396833092188
0.5999999999998886        0.3999999999999929       0.4064650191068335
0.6499999999998874        0.24999999999999217      0.6718758955467249
0.699999999999888         0.24999999999999156      0.6996548295899297
0.649999999999888         0.2999999999999922       0.6401779184876601
0.6999999999998886        0.2999999999999916       0.6874038920786004
0.7499999999998874        0.14999999999999086      0.715417834101073
0.799999999999888         0.1499999999999903       0.7158210793025673
0.7499999999998881        0.19999999999999094      0.7140232601384022
0.7999999999998886        0.19999999999999035      0.7160476071710239
0.849999999999887         0                        0.673147704292201
0.8999999999998876        0                        0.6358273011863247
0.8499999999998875        0.04999999999999482      0.6989969037463865
0.8999999999998881        0.04999999999999452      0.6836140003970919
0.8499999999998881        0.09999999999998964      0.7104649043921224
0.8999999999998887        0.09999999999998904      0.704905637999013
0                         0.9499999999999997       0.6604841291658756
0.04999999999994478       0.9499999999999992       0.6292138875540613
0.09999999999988957       0.9499999999999986       0.5962389576406616
0                         0.9999999999999997       0.6959934669527446
0.04999999999994509       0.9999999999999991       0.6842951790480739
0.09999999999989018       0.9999999999999987       0.6716676880962656
0.1499999999998889        0.8499999999999981       0.24026958999292428
0.19999999999988943       0.8499999999999974       0.2191390763109276
0.1499999999998895        0.899999999999998        0.41051364648931743
0.19999999999989004       0.8999999999999975       0.3874112886007296
0.24999999999988876       0.7499999999999969       0.07257444814877387
0.2999999999998893        0.7499999999999962       0.07945136803202732
0.24999999999988937       0.7999999999999969       0.11692731277685744
0.29999999999988985       0.7999999999999963       0.13120385030109713
0.34999999999988873       0.6499999999999958       0.056566446449359514
0.39999999999988933       0.6499999999999952       0.06662962210887943
0.3499999999998893        0.6999999999999957       0.0677027824162194
0.3999999999998899        0.6999999999999952       0.08637230852377129
0.4499999999998887        0.5499999999999946       0.0679361434873898
0.49999999999988926       0.549999999999994        0.10437230300291268
0.44999999999988927       0.5999999999999945       0.07506747728384415
0.49999999999988987       0.599999999999994        0.11927881857555972
0.5499999999998886        0.4499999999999935       0.2030640110234682
0.5999999999998892        0.44999999999999285      0.36288386513061377
0.5499999999998892        0.49999999999999345      0.18820196770824027
0.5999999999998897        0.4999999999999928       0.3444390994474092
0.6499999999998886        0.34999999999999226      0.6012362854600174
0.6999999999998892        0.34999999999999165      0.6721304588417912
0.6499999999998891        0.3999999999999923       0.5628029352400125
0.6999999999998897        0.3999999999999917       0.6564353349153974
0.7499999999998886        0.249999999999991        0.7112265532782612
0.7999999999998892        0.24999999999999042      0.7153699313478511
0.7499999999998892        0.29999999999999105      0.707067261282716
0.7999999999998898        0.2999999999999905       0.7141249959217809
0.8499999999998886        0.14999999999998967      0.715009759779364
0.8999999999998892        0.14999999999998906      0.7133339588139836
0.8499999999998892        0.1999999999999897       0.7164541039573502
0.8999999999998898        0.19999999999998908      0.7161793410019529
0.9499999999998882        0                        0.5851008578181026
0.9999999999998888        0                        0.5298220807870623
0.9499999999998887        0.0499999999999942       0.6621123836905649
0.9999999999998893        0.04999999999999388      0.6373207173669351
0.9499999999998893        0.0999999999999884       0.697279095803047
0.9999999999998899        0.09999999999998777      0.6886045263667796
0                         1.0499999999999996       0.7103333383253599
0.049999999999945394      1.049999999999999        0.7065565599095925
0.09999999999989079       1.0499999999999985       0.7024133566611259
0                         1.0999999999999996       0.7150041834371293
0.049999999999945706      1.099999999999999        0.7141632588942919
0.09999999999989141       1.0999999999999983       0.7130533284242062
0.1499999999998901        0.949999999999998        0.5691238937918947
0.19999999999989065       0.9499999999999975       0.5545902127049532
0.14999999999989072       0.9999999999999981       0.6609484167336434
0.19999999999989124       0.9999999999999976       0.655094950751477
0.24999999999988998       0.8499999999999969       0.22064569798024466
0.29999999999989047       0.8499999999999963       0.24465591081178384
0.2499999999998906        0.899999999999997        0.38946570059916674
0.29999999999989113       0.8999999999999965       0.41587146227918276
0.3499999999998899        0.7499999999999958       0.09605205640180263
0.3999999999998905        0.7499999999999951       0.13113646794672104
0.3499999999998905        0.7999999999999957       0.16341061451124814
0.3999999999998911        0.7999999999999952       0.22252371901219228
0.4499999999998899        0.6499999999999946       0.09178660955474051
0.4999999999998904        0.649999999999994        0.1517224635222323
0.4499999999998905        0.6999999999999946       0.12780579671034076
0.49999999999989103       0.6999999999999941       0.2121866538630904
0.5499999999998898        0.5499999999999935       0.19344870239114714
0.5999999999998903        0.5499999999999928       0.3514050561658921
0.5499999999998904        0.5999999999999934       0.2197685542132581
0.5999999999998908        0.5999999999999929       0.3831127825328554
0.6499999999998898        0.4499999999999923       0.5337294025636432
0.6999999999998905        0.44999999999999174      0.6439621742366403
0.6499999999998904        0.4999999999999923       0.520491455394659
0.6999999999998912        0.4999999999999918       0.6381485561317916
0.7499999999998898        0.34999999999999104      0.701896235003683
0.7999999999998904        0.34999999999999043      0.7125649544810331
0.7499999999998903        0.39999999999999103      0.6965797814441836
0.7999999999998909        0.39999999999999036      0.7109932097538879
0.8499999999998897        0.24999999999998979      0.7167156248513614
0.8999999999998903        0.24999999999998915      0.7170288380061665
0.8499999999998904        0.29999999999998983      0.716508691973751
0.8999999999998909        0.2999999999999892       0.7171367449669875
0.9499999999998898        0.14999999999998845      0.7110362259511788
0.9999999999998904        0.14999999999998784      0.7084868910265741
0.9499999999998904        0.1999999999999885       0.715656104312661
0.999999999999891         0.1999999999999879       0.7150621928663483
1.0499999999998892        0                        0.4829711545577758
1.09999999999989          0                        0.4554790837593479
1.04999999999989          0.049999999999993584     0.6147784429297265
1.0999999999998904        0.049999999999993286     0.6008428675262626
1.0499999999998906        0.09999999999998717      0.6807985144455527
1.099999999999891         0.09999999999998657      0.6760736310069188
0                         1.1499999999999995       0.7154026614143384
0.049999999999946004      1.149999999999999        0.7161705847230427
0.09999999999989201       1.1499999999999986       0.7163813419349185
0                         1.1999999999999995       0.7121996696807855
0.0499999999999463        1.199999999999999        0.7152028498449517
0.0999999999998926        1.1999999999999986       0.7166744254212661
0.14999999999989133       1.049999999999998        0.6988897310602062
0.19999999999989185       1.0499999999999976       0.6970191690934349
0.14999999999989194       1.0999999999999979       0.7120707089513882
0.19999999999989246       1.0999999999999974       0.7115924886866826
0.2499999999998912        0.9499999999999971       0.5561593032203829
0.2999999999998917        0.9499999999999964       0.5731006421926498
0.24999999999989175       0.9999999999999969       0.6559143580175096
0.2999999999998923        0.9999999999999962       0.6630873744000857
0.34999999999989106       0.8499999999999959       0.2938451128934394
0.39999999999989166       0.8499999999999952       0.36944311739245517
0.3499999999998916        0.8999999999999959       0.46409435317276587
0.39999999999989216       0.8999999999999952       0.5264584908418026
0.44999999999989104       0.7499999999999946       0.19894344130850425
0.49999999999989164       0.749999999999994        0.31092501058687605
0.44999999999989165       0.7999999999999946       0.31708741078672653
0.4999999999998922        0.799999999999994        0.4383783233971892
0.549999999999891         0.6499999999999935       0.27141917249321434
0.5999999999998915        0.6499999999999928       0.4378436083905863
0.5499999999998916        0.6999999999999935       0.3514198515147472
0.5999999999998922        0.6999999999999929       0.5080825413345026
0.649999999999891         0.5499999999999923       0.5258526194671528
0.6999999999998918        0.5499999999999918       0.6407465276579366
0.6499999999998916        0.5999999999999923       0.548305062219585
0.6999999999998924        0.5999999999999919       0.6508605561466407
0.7499999999998909        0.4499999999999911       0.6923722384362122
0.7999999999998915        0.4499999999999904       0.7097912950825019
0.7499999999998916        0.4999999999999911       0.6904798727961299
0.799999999999892         0.49999999999999045      0.7093002131936939
0.8499999999998911        0.3499999999999898       0.7161528337909984
0.8999999999998916        0.34999999999998926      0.7169985400201558
0.8499999999998915        0.3999999999999898       0.7157694200921283
0.8999999999998922        0.3999999999999893       0.7166867836387404
0.9499999999998909        0.24999999999998856      0.7170578402346192
0.9999999999998915        0.24999999999998798      0.716925594967813
0.9499999999998915        0.2999999999999886       0.7171865843708795
0.9999999999998921        0.29999999999998805      0.7167114779773818
1.049999999999891         0.14999999999998725      0.7062696692778815
1.0999999999998915        0.14999999999998664      0.7050094901377992
1.0499999999998915        0.1999999999999873       0.7145190643732886
1.099999999999892         0.1999999999999867       0.7140651986233518
1.1499999999998907        0                        0.45243983924209125
1.1999999999998912        0                        0.47348168823830805
1.149999999999891         0.04999999999999299      0.5996262204555595
1.1999999999998918        0.04999999999999269      0.6111726491967374
1.1499999999998916        0.09999999999998598      0.6759474556499997
1.1999999999998923        0.09999999999998538      0.6804184007750488
0                         1.2499999999999996       0.7034307016983119
0.049999999999946615      1.2499999999999991       0.7113818934721928
0.09999999999989323       1.2499999999999987       0.7153435384715846
0                         1.2999999999999994       0.6838770555107327
0.04999999999994692       1.299999999999999        0.7027306240371086
0.09999999999989384       1.2999999999999985       0.7119801754172831
0.14999999999989252       1.149999999999998        0.7163622645419121
0.19999999999989304       1.1499999999999975       0.7163666703724353
0.1499999999998931        1.199999999999998        0.7173095186775368
0.1999999999998936        1.1999999999999975       0.7175636458605302
0.24999999999989236       1.0499999999999967       0.6974349152304983
0.2999999999998929        1.0499999999999963       0.7000184732599334
0.24999999999989297       1.0999999999999968       0.7118339370467911
0.2999999999998935        1.099999999999996        0.712733026907251
0.34999999999989223       0.949999999999996        0.6013734484277665
0.3999999999998928        0.9499999999999953       0.6341749829858657
0.34999999999989284       0.9999999999999958       0.6745146787503441
0.39999999999989333       0.9999999999999953       0.6872299883877049
0.44999999999989215       0.8499999999999946       0.4644334578382892
0.4999999999998927        0.8499999999999941       0.5590119166380046
0.4499999999998927        0.8999999999999947       0.5900022257119544
0.4999999999998932        0.8999999999999941       0.6427274111444697
0.5499999999998921        0.7499999999999936       0.45331015343728853
0.5999999999998927        0.7499999999999929       0.5794741349938545
0.5499999999998928        0.7999999999999935       0.5548472283562327
0.5999999999998933        0.7999999999999929       0.6381063969918565
0.649999999999892         0.6499999999999924       0.5830465775457424
0.6999999999998927        0.6499999999999918       0.6656198565406012
0.6499999999998926        0.6999999999999923       0.6222493726257188
0.6999999999998929        0.6999999999999917       0.6813857198504761
0.7499999999998921        0.5499999999999912       0.691518954988291
0.7999999999998925        0.5499999999999905       0.709684390581374
0.7499999999998926        0.5999999999999912       0.6951551724556292
0.7999999999998929        0.5999999999999905       0.7108408436639139
0.849999999999892         0.44999999999998985      0.7154453298918577
0.8999999999998927        0.4499999999999893       0.7161758340553489
0.8499999999998926        0.4999999999999899       0.7152437492400019
0.8999999999998931        0.49999999999998934      0.7154401816856238
0.949999999999892         0.34999999999998865      0.7167429144720591
0.9999999999998926        0.34999999999998804      0.7151830097522747
0.9499999999998927        0.3999999999999887       0.715716402455869
0.9999999999998932        0.39999999999998803      0.7119706485579743
1.0499999999998921        0.24999999999998737      0.7165057687966461
1.0999999999998926        0.24999999999998676      0.7154487269377209
1.0499999999998928        0.29999999999998744      0.7152455046633528
1.0999999999998933        0.29999999999998683      0.7117719595294533
1.149999999999892         0.14999999999998603      0.7050950338408172
1.1999999999998927        0.14999999999998545      0.7064475694653253
1.1499999999998924        0.1999999999999861       0.7136252195620226
1.1999999999998932        0.19999999999998552      0.7130053892421272
1.2499999999998916        0                        0.5147579312831819
1.2999999999998924        0                        0.5673718460640024
1.2499999999998923        0.049999999999992384     0.632101105256864
1.2999999999998928        0.04999999999999207      0.6566510231194319
1.249999999999893         0.09999999999998477      0.6880872971490053
1.2999999999998935        0.09999999999998414      0.696823832719485
0                         1.3499999999999994       0.6464637784873319
0.04999999999994723       1.349999999999999        0.6861185368737871
0.09999999999989446       1.3499999999999985       0.7054956000013181
0                         1.3999999999999995       0.5860825216492588
0.049999999999947545      1.399999999999999        0.6582769975962609