% Model:              Baseline_Circular_BIG_1.mph
% Version:            COMSOL 6.0.0.405
% Date:               Jun 9 2024, 19:05
% Dimension:          2
% Nodes:              40401
% Expressions:        1
% Description:        Surface
% X                       Y                        Color
0                         0                        0.4596162545817791
0.04999999999993898       0                        0.31666109499469125
0.09999999999987796       0                        0.3000000095676948
0                         0.05                     0.3123634968874005
0.04999999999993929       0.0499999999999997       0.5477790131954194
0.09999999999987857       0.04999999999999939      0.3002644617267661
0                         0.1                      0.3000000031698101
0.0499999999999396        0.0999999999999994       0.30240741619408357
0.0999999999998792        0.09999999999999878      0.3026529253239059
0                         0.15000000000000002      0.3316062768328311
0.04999999999993991       0.14999999999999938      1.281934867893928
0.09999999999987982       0.14999999999999877      0.8227901497080625
0                         0.2                      0.30055609449439885
0.04999999999994022       0.1999999999999994       11.159172776199936
0.09999999999988043       0.19999999999999876      0.30000000000000415
0.14999999999987856       0                        0.3003376615629877
0.19999999999987916       0                        0.48009347128124313
0.14999999999987915       0.04999999999999909      0.49733188395462136
0.19999999999987972       0.04999999999999878      0.47987195076270195
0.14999999999987976       0.09999999999999817      0.34781819658316204
0.1999999999998803        0.09999999999999756      0.3875811121860284
0                         0.25                     1.4184012414649225
0.04999999999994051       0.24999999999999942      0.3039575188871933
0.09999999999988102       0.24999999999999878      0.30162178318155924
0                         0.3                      0.43310750016049215
0.04999999999994079       0.2999999999999994       0.30000024297552463
0.09999999999988159       0.2999999999999988       0.3000082189389055
0.1499999999998804        0.1499999999999982       0.3000059557143008
0.19999999999988097       0.14999999999999758      0.3062195616351112
0.14999999999988103       0.19999999999999818      0.3000384871314754
0.19999999999988163       0.19999999999999762      0.30000000000730176
0.24999999999987976       0                        0.49108169164332893
0.29999999999988036       0                        0.30000006687465564
0.24999999999988035       0.049999999999998476     0.300000680325681
0.299999999999881         0.04999999999999818      0.3802485501858433
0.24999999999988093       0.09999999999999695      0.3034605841672671
0.2999999999998816        0.09999999999999636      0.3226534186181543
0                         0.35                     0.30134267575023227
0.049999999999941105      0.34999999999999937      0.3211926655612411
0.09999999999988221       0.34999999999999876      0.301308268270904
0                         0.3999999999999999       0.30000216965664467
0.04999999999994141       0.39999999999999936      0.3000229714619571
0.09999999999988282       0.39999999999999875      0.3
0.14999999999988162       0.2499999999999982       0.30000293171125486
0.19999999999988222       0.2499999999999976       0.3000043126307882
0.1499999999998822        0.2999999999999982       0.7929382059916796
0.19999999999988283       0.2999999999999976       0.30283079361132414
0.24999999999988157       0.14999999999999697      0.30000094045425413
0.2999999999998822        0.14999999999999633      0.43263659089190376
0.2499999999998822        0.19999999999999696      0.47413045129523373
0.2999999999998828        0.19999999999999632      1.806982057717519
0.34999999999988096       0                        0.32376926884058227
0.39999999999988156       0                        0.3000000005124779
0.3499999999998816        0.049999999999997866     0.9165790670024132
0.39999999999988217       0.04999999999999756      0.30152673400177377
0.3499999999998822        0.09999999999999573      3.4725505926615954
0.3999999999998828        0.09999999999999512      0.3872323450336471
0                         0.4499999999999999       0.3005193282691708
0.04999999999994173       0.4499999999999993       0.30004838791100696
0.09999999999988346       0.44999999999999873      0.3845031727139186
0                         0.4999999999999999       0.3000865440229093
0.04999999999994204       0.49999999999999933      1.575264812802978
0.09999999999988408       0.4999999999999988       0.3000004989077014
0.14999999999988278       0.34999999999999815      0.30000000000000004
0.1999999999998834        0.34999999999999754      0.30000000039777097
0.1499999999998834        0.39999999999999813      0.3679751565050007
0.199999999999884         0.3999999999999975       0.31197118739527685
0.24999999999988282       0.24999999999999697      0.31621443876606603
0.29999999999988336       0.24999999999999634      0.30010868094545584
0.2499999999998834        0.299999999999997        0.3115646204847807
0.29999999999988397       0.2999999999999964       0.30003308056693934
0.3499999999998828        0.14999999999999575      0.4138506790665565
0.39999999999988345       0.14999999999999516      0.34781332712789886
0.3499999999998834        0.19999999999999576      0.3000727545330671
0.39999999999988406       0.1999999999999952       0.30156353035807887
0.44999999999988216       0                        1.5234510412253932
0.49999999999988276       0                        0.30936329977602245
0.4499999999998828        0.04999999999999725      0.3000000000000001
0.49999999999988337       0.049999999999996936     0.3000541558441924
0.4499999999998834        0.0999999999999945       0.3000092776200403
0.499999999999884         0.09999999999999387      0.3142672530408655
0                         0.5499999999999998       0.31412793128078187
0.049999999999942354      0.5499999999999994       0.3000012253402379
0.09999999999988471       0.5499999999999987       0.3000000000000041
0                         0.5999999999999999       1.0472848992565458
0.04999999999994266       0.5999999999999993       0.30003305137647984
0.09999999999988532       0.5999999999999988       0.3026861561415207
0.149999999999884         0.4499999999999981       0.3000434999075403
0.1999999999998846        0.4499999999999975       0.30010837505450144
0.14999999999988464       0.49999999999999817      0.30208710669565764
0.19999999999988521       0.49999999999999756      0.3000038235444924
0.24999999999988398       0.349999999999997        0.30003697761248066
0.2999999999998846        0.3499999999999963       0.8524051889878828
0.24999999999988456       0.3999999999999969       0.300007239877194
0.29999999999988514       0.39999999999999625      6.270720692384718
0.34999999999988396       0.24999999999999578      0.30060371300221583
0.3999999999998846        0.24999999999999523      0.30007493522445466
0.34999999999988457       0.2999999999999958       0.3000000065914954
0.39999999999988517       0.2999999999999952       0.30001656457975306
0.44999999999988394       0.14999999999999453      0.32661471544249443
0.49999999999988454       0.14999999999999392      14.686033868197798
0.4499999999998846        0.19999999999999457      0.3000015084558614
0.4999999999998851        0.19999999999999393      0.3003895883445627
0.5499999999998834        0                        0.3072120450047024
0.599999999999884         0                        0.30000000078921785
0.5499999999998839        0.049999999999996644     0.6351456705078791
0.5999999999998846        0.04999999999999635      0.3000055881000152
0.5499999999998846        0.09999999999999329      0.3002421609270966
0.5999999999998853        0.0999999999999927       0.30000068025918364
0                         0.6499999999999998       0.3015151473740441
0.04999999999994295       0.6499999999999992       0.3043586706635772
0.0999999999998859        0.6499999999999987       0.41245249658685507
0                         0.6999999999999997       0.30021449119981325
0.04999999999994325       0.6999999999999992       0.30000178178494674
0.0999999999998865        0.6999999999999986       0.30000097885357585
0.14999999999988525       0.5499999999999982       0.31551429830980465
0.19999999999988582       0.5499999999999975       0.3283777319260366
0.14999999999988586       0.5999999999999981       0.3000142393518111
0.1999999999998864        0.5999999999999974       0.3023646964056615
0.24999999999988518       0.4499999999999969       0.3057609861134047
0.29999999999988575       0.4499999999999963       0.31665515827149565
0.24999999999988579       0.4999999999999969       0.30000000000002763
0.29999999999988636       0.4999999999999963       0.4558080245555379
0.3499999999998852        0.3499999999999958       0.30071994859567336
0.3999999999998858        0.34999999999999526      0.3000000000617609
0.34999999999988574       0.3999999999999958       0.30000803104855556
0.39999999999988634       0.3999999999999953       0.37900471264565233
0.44999999999988516       0.24999999999999462      0.3031695910878075
0.4999999999998857        0.24999999999999395      0.30000070054695743
0.4499999999998857        0.2999999999999946       0.30000000302341556
0.4999999999998863        0.299999999999994        0.3000000091083963
0.5499999999998851        0.1499999999999933       2.000222803203617
0.5999999999998857        0.14999999999999275      0.30364083265386105
0.5499999999998857        0.19999999999999335      0.3001560164702799
0.5999999999998863        0.1999999999999928       0.3000487338679571
0.6499999999998846        0                        55.9333234532969
0.6999999999998852        0                        0.3000302135093272
0.6499999999998852        0.049999999999996034     0.30000358027301716
0.6999999999998858        0.049999999999995715     0.34093501411424737
0.6499999999998859        0.09999999999999207      0.3000000115211918
0.6999999999998865        0.09999999999999143      0.3000001450257873
0                         0.7499999999999998       0.3037708507696007
0.04999999999994355       0.7499999999999991       0.30000120542027114
0.0999999999998871        0.7499999999999987       0.3000035764521139
0                         0.7999999999999997       0.3224322909735455
0.04999999999994385       0.7999999999999992       0.30172624860531516
0.0999999999998877        0.7999999999999986       0.30002273470672514
0.14999999999988647       0.649999999999998        0.3000029786727019
0.19999999999988702       0.6499999999999975       0.40993577119585956
0.14999999999988706       0.699999999999998        0.414794135937669
0.19999999999988763       0.6999999999999974       0.30012584426747113
0.24999999999988637       0.5499999999999969       0.3017493996275028
0.2999999999998869        0.5499999999999963       0.3000406349871402
0.24999999999988698       0.5999999999999969       0.30004696610562887
0.2999999999998875        0.5999999999999963       0.7994247366309035
0.34999999999988635       0.44999999999999574      2.898505323622384
0.39999999999988695       0.44999999999999524      0.3000327173203467
0.34999999999988696       0.4999999999999957       1.0934672240498822
0.39999999999988756       0.49999999999999517      0.3001027995831592
0.4499999999998863        0.3499999999999946       0.30000000869383664
0.49999999999988687       0.349999999999994        0.30000019919450577
0.44999999999988693       0.39999999999999464      0.8391072060922664
0.4999999999998875        0.39999999999999397      0.31547085397693264
0.5499999999998864        0.24999999999999337      0.3122532990088759
0.5999999999998868        0.2499999999999928       0.3000000000711781
0.5499999999998869        0.2999999999999934       0.3000003244515741
0.5999999999998875        0.29999999999999283      0.44967180269718476
0.6499999999998863        0.1499999999999921       0.30026398526953413
0.6999999999998869        0.14999999999999147      0.35370988523265473
0.6499999999998869        0.19999999999999216      0.3047856765696376
0.6999999999998875        0.19999999999999152      0.3003961837077505
0.7499999999998858        0                        2.024240837005336
0.7999999999998864        0                        0.3016832368998439
0.7499999999998864        0.049999999999995416     0.4781417234659
0.7999999999998869        0.04999999999999512      0.3000010837448123
0.749999999999887         0.09999999999999083      0.3000477198312844
0.7999999999998875        0.09999999999999024      0.3002747944765592
0                         0.8499999999999996       0.3081401129394706
0.04999999999994416       0.8499999999999992       0.3000007798696123
0.09999999999988832       0.8499999999999985       0.3378692560578305
0                         0.8999999999999997       0.3000370813321968
0.04999999999994447       0.8999999999999991       3.9103768628413946
0.09999999999988894       0.8999999999999986       0.39605362822929663
0.14999999999988767       0.749999999999998        0.34090634187512786
0.19999999999988824       0.7499999999999974       0.31761030502460463
0.14999999999988828       0.799999999999998        0.30002012140595186
0.19999999999988885       0.7999999999999975       1.221467478461557
0.2499999999998876        0.6499999999999968       0.3024422342842573
0.29999999999988813       0.6499999999999964       0.300000000000243
0.2499999999998882        0.6999999999999968       0.8317481642112545
0.29999999999988874       0.6999999999999963       0.3099884145841503
0.3499999999998875        0.5499999999999957       0.37332144939367784
0.3999999999998881        0.5499999999999952       0.3291021504862271
0.3499999999998881        0.5999999999999958       0.3001561983502689
0.3999999999998887        0.5999999999999952       0.3774290233367271
0.4499999999998875        0.4499999999999946       0.30123505507835396
0.4999999999998881        0.44999999999999407      0.3000085645746012
0.4499999999998881        0.49999999999999467      2.006292694809775
0.49999999999988864       0.4999999999999941       0.30001705250171395
0.5499999999998875        0.3499999999999934       0.30000005414677944
0.5999999999998881        0.3499999999999929       0.3001703945188875
0.549999999999888         0.39999999999999347      0.3003395631441094
0.5999999999998886        0.3999999999999929       4.405457119347258
0.6499999999998874        0.24999999999999217      0.34297757621060715
0.699999999999888         0.24999999999999156      0.3222800878891058
0.649999999999888         0.2999999999999922       0.3212192157645373
0.6999999999998886        0.2999999999999916       0.32703137654295905
0.7499999999998874        0.14999999999999086      0.356465114246843
0.799999999999888         0.1499999999999903       0.3100190680496599
0.7499999999998881        0.19999999999999094      0.3005592593735764
0.7999999999998886        0.19999999999999035      0.36698925400327775
0.849999999999887         0                        0.3073158284632546
0.8999999999998876        0                        0.300000000035231
0.8499999999998875        0.04999999999999482      0.3000001079573253
0.8999999999998881        0.04999999999999452      0.314340937866148
0.8499999999998881        0.09999999999998964      0.3017929892733276
0.8999999999998887        0.09999999999998904      0.3432574222399083
0                         0.9499999999999997       0.3076713864866279
0.04999999999994478       0.9499999999999992       0.30000000114355996
0.09999999999988957       0.9499999999999986       0.3000000035339622
0                         0.9999999999999997       0.3148367383200753
0.04999999999994509       0.9999999999999991       0.3004907261420503
0.09999999999989018       0.9999999999999987       0.30000269848211747
0.1499999999998889        0.8499999999999981       0.30144615798724905
0.19999999999988943       0.8499999999999974       0.3009361459574183
0.1499999999998895        0.899999999999998        0.300000483673453
0.19999999999989004       0.8999999999999975       0.30000000006203076
0.24999999999988876       0.7499999999999969       0.30000000003302846
0.2999999999998893        0.7499999999999962       0.3347680101890456
0.24999999999988937       0.7999999999999969       0.6491525664783531
0.29999999999988985       0.7999999999999963       0.6223605810911232
0.34999999999988873       0.6499999999999958       0.302540090967914
0.39999999999988933       0.6499999999999952       0.32079878539060813
0.3499999999998893        0.6999999999999957       0.365624076452323
0.3999999999998899        0.6999999999999952       0.43775468403342505
0.4499999999998887        0.5499999999999946       0.31465643688544176
0.49999999999988926       0.549999999999994        0.30773132123399016
0.44999999999988927       0.5999999999999945       1.1669500811903437
0.49999999999988987       0.599999999999994        0.45977172292396895
0.5499999999998886        0.4499999999999935       0.30017068986331585
0.5999999999998892        0.44999999999999285      0.3033275823898327
0.5499999999998892        0.49999999999999345      0.3000000045822958
0.5999999999998897        0.4999999999999928       0.3003570931671947
0.6499999999998886        0.34999999999999226      0.3001512603988671
0.6999999999998892        0.34999999999999165      0.3000000000641755
0.6499999999998891        0.3999999999999923       0.30000000018334066
0.6999999999998897        0.3999999999999917       0.3208757420610198
0.7499999999998886        0.249999999999991        0.30003990702786615
0.7999999999998892        0.24999999999999042      0.3007316238314441
0.7499999999998892        0.29999999999999105      0.3110893115495701
0.7999999999998898        0.2999999999999905       0.35272534637360037
0.8499999999998886        0.14999999999998967      0.31918457427875574
0.8999999999998892        0.14999999999998906      0.3005513384876571
0.8499999999998892        0.1999999999999897       0.30001062296707237
0.8999999999998898        0.19999999999998908      0.31086352659259786
0.9499999999998882        0                        4.443653643459988
0.9999999999998888        0                        0.5139949518811257
0.9499999999998887        0.0499999999999942       0.3002981324260084
0.9999999999998893        0.04999999999999388      0.5920614840633378
0.9499999999998893        0.0999999999999884       0.3000002748042602
0.9999999999998899        0.09999999999998777      0.30000000164953344
0                         1.0499999999999996       0.30026155505997193
0.049999999999945394      1.049999999999999        0.3034655382988542
0.09999999999989079       1.0499999999999985       0.3204573841664856
0                         1.0999999999999996       0.3085283185723156
0.049999999999945706      1.099999999999999        0.3000236738341724
0.09999999999989141       1.0999999999999983       1.1858778124337321
0.1499999999998901        0.949999999999998        0.41776537967891336
0.19999999999989065       0.9499999999999975       0.3027895310739756
0.14999999999989072       0.9999999999999981       0.33193448319520613
0.19999999999989124       0.9999999999999976       0.30000166819624247
0.24999999999988998       0.8499999999999969       0.4211534350679973
0.29999999999989047       0.8499999999999963       0.3195574912558263
0.2499999999998906        0.899999999999997        0.300009233558203
0.29999999999989113       0.8999999999999965       1.1557513234065653
0.3499999999998899        0.7499999999999958       0.300000019126894
0.3999999999998905        0.7499999999999951       0.3096508137503653
0.3499999999998905        0.7999999999999957       0.8960448129604304
0.3999999999998911        0.7999999999999952       0.30000019196095734
0.4499999999998899        0.6499999999999946       0.35190818428896
0.4999999999998904        0.649999999999994        0.3000011839737971
0.4499999999998905        0.6999999999999946       0.30478970945718137
0.49999999999989103       0.6999999999999941       0.3000003280702694
0.5499999999998898        0.5499999999999935       0.30000001400817666
0.5999999999998903        0.5499999999999928       0.3001029854718522
0.5499999999998904        0.5999999999999934       0.3072104094741433
0.5999999999998908        0.5999999999999929       0.30000038977447685
0.6499999999998898        0.4499999999999923       0.30003682053696085
0.6999999999998905        0.44999999999999174      0.3000000000106123
0.6499999999998904        0.4999999999999923       0.3000016459378336
0.6999999999998912        0.4999999999999918       0.3000048952089833
0.7499999999998898        0.34999999999999104      0.3000000190199093
0.7999999999998904        0.34999999999999043      0.3000000033767844
0.7499999999998903        0.39999999999999103      0.30167222851827347
0.7999999999998909        0.39999999999999036      0.30148451796051656
0.8499999999998897        0.24999999999998979      0.32787501571579697
0.8999999999998903        0.24999999999998915      0.3017497928314113
0.8499999999998904        0.29999999999998983      0.30030022761416997
0.8999999999998909        0.2999999999999892       0.4051354383096052
0.9499999999998898        0.14999999999998845      0.34303515636990894
0.9999999999998904        0.14999999999998784      0.3001582369305029
0.9499999999998904        0.1999999999999885       0.3000005794949063
0.999999999999891         0.1999999999999879       0.3012692118135646
1.0499999999998892        0                        0.30013699540871797
1.09999999999989          0                        0.30255692534590223
1.04999999999989          0.049999999999993584     0.3000009426954106
1.0999999999998904        0.049999999999993286     0.3000249840191114
1.0499999999998906        0.09999999999998717      0.3024243080267059
1.099999999999891         0.09999999999998657      0.3000001239813571
0                         1.1499999999999995       0.30000041576895525
0.049999999999946004      1.149999999999999        0.30016431783698017
0.09999999999989201       1.1499999999999986       0.30000248836227417
0                         1.1999999999999995       0.3007884972871908
0.0499999999999463        1.199999999999999        0.30047415802599253
0.0999999999998926        1.1999999999999986       0.3000000005701834
0.14999999999989133       1.049999999999998        0.3001433536118701
0.19999999999989185       1.0499999999999976       0.3000001735086618
0.14999999999989194       1.0999999999999979       0.3000154345163307
0.19999999999989246       1.0999999999999974       0.30270519355943243
0.2499999999998912        0.9499999999999971       0.3787959557164952
0.2999999999998917        0.9499999999999964       0.30705258455398704
0.24999999999989175       0.9999999999999969       1.716111614345117
0.2999999999998923        0.9999999999999962       0.7786911660604688
0.34999999999989106       0.8499999999999959       0.300000001587105
0.39999999999989166       0.8499999999999952       0.30252533198583764
0.3499999999998916        0.8999999999999959       0.3000575444600905
0.39999999999989216       0.8999999999999952       0.3569265683562896
0.44999999999989104       0.7499999999999946       0.3000104493706878
0.49999999999989164       0.749999999999994        0.3111942741754134
0.44999999999989165       0.7999999999999946       0.3000001983199674
0.4999999999998922        0.799999999999994        0.3007412716570714
0.549999999999891         0.6499999999999935       0.3495722552842052
0.5999999999998915        0.6499999999999928       0.42022225751070685
0.5499999999998916        0.6999999999999935       0.3016032931422869
0.5999999999998922        0.6999999999999929       0.3006306994141702
0.649999999999891         0.5499999999999923       0.30619257153385215
0.6999999999998918        0.5499999999999918       0.3000000027149503
0.6499999999998916        0.5999999999999923       0.3000619216102516
0.6999999999998924        0.5999999999999919       0.33945914441106495
0.7499999999998909        0.4499999999999911       0.30170865870176106
0.7999999999998915        0.4499999999999904       0.35300930372777745
0.7499999999998916        0.4999999999999911       0.30000000792671
0.799999999999892         0.49999999999999045      0.7948542313091151
0.8499999999998911        0.3499999999999898       0.3004851421506714
0.8999999999998916        0.34999999999998926      0.30096752459449955
0.8499999999998915        0.3999999999999898       0.3000041402121123
0.8999999999998922        0.3999999999999893       0.3000000897584299
0.9499999999998909        0.24999999999998856      0.3001918283711854
0.9999999999998915        0.24999999999998798      0.37381716202646587
0.9499999999998915        0.2999999999999886       0.3037885035702925
0.9999999999998921        0.29999999999998805      0.30000000032711316
1.049999999999891         0.14999999999998725      0.30000000436819313
1.0999999999998915        0.14999999999998664      0.3000660140932907
1.0499999999998915        0.1999999999999873       0.3255925711929155
1.099999999999892         0.1999999999999867       3.618778741349479
1.1499999999998907        0                        0.3320028349278131
1.1999999999998912        0                        0.30995503693042203
1.149999999999891         0.04999999999999299      0.3000744027085134
1.1999999999998918        0.04999999999999269      0.30009597291140333
1.1499999999998916        0.09999999999998598      0.31977307640018443
1.1999999999998923        0.09999999999998538      0.30000025599453517
0                         1.2499999999999996       0.3000317366029468
0.049999999999946615      1.2499999999999991       1.5425412276630661
0.09999999999989323       1.2499999999999987       0.4315958472363759
0                         1.2999999999999994       0.3005795402642548
0.04999999999994692       1.299999999999999        0.30001133286813025
0.09999999999989384       1.2999999999999985       0.30000726859913196
0.14999999999989252       1.149999999999998        0.34325078408571313
0.19999999999989304       1.1499999999999975       1.2445209828571113
0.1499999999998931        1.199999999999998        0.3008680627674241
0.1999999999998936        1.1999999999999975       0.30464595697391356
0.24999999999989236       1.0499999999999967       0.30000000848535147
0.2999999999998929        1.0499999999999963       0.30010239414431683
0.24999999999989297       1.0999999999999968       0.3217929300749005
0.2999999999998935        1.099999999999996        0.31560189698127694
0.34999999999989223       0.949999999999996        0.3000344335723144
0.3999999999998928        0.9499999999999953       0.30000552002006947
0.34999999999989284       0.9999999999999958       0.30888300639951083
0.39999999999989333       0.9999999999999953       8.434772361233819
0.44999999999989215       0.8499999999999946       0.301279255618223
0.4999999999998927        0.8499999999999941       0.3015910620463974
0.4499999999998927        0.8999999999999947       0.3382331999700429
0.4999999999998932        0.8999999999999941       0.3000328693319392
0.5499999999998921        0.7499999999999936       0.31369632659381447
0.5999999999998927        0.7499999999999929       0.3000002264687525
0.5499999999998928        0.7999999999999935       0.3000000111539862
0.5999999999998933        0.7999999999999929       1.9661999934213874
0.649999999999892         0.6499999999999924       1.5369599217100227
0.6999999999998927        0.6499999999999918       0.3068881600329888
0.6499999999998926        0.6999999999999923       0.3017691192864303
0.6999999999998929        0.6999999999999917       0.3000005882566893
0.7499999999998921        0.5499999999999912       0.3003341484634177
0.7999999999998925        0.5499999999999905       0.30011725621798135
0.7499999999998926        0.5999999999999912       0.4473704323593838
0.7999999999998929        0.5999999999999905       6.37708551631317
0.849999999999892         0.44999999999998985      0.35417628057667405
0.8999999999998927        0.4499999999999893       0.37811305180582516
0.8499999999998926        0.4999999999999899       0.5304637267025831
0.8999999999998931        0.49999999999998934      0.3022656686340248
0.949999999999892         0.34999999999998865      0.30000175491997816
0.9999999999998926        0.34999999999998804      0.8017012278063409
0.9499999999998927        0.3999999999999887       0.3000126280997624
0.9999999999998932        0.39999999999998803      0.3006513138453879
1.0499999999998921        0.24999999999998737      0.30000090199630697
1.0999999999998926        0.24999999999998676      0.30000169607617083
1.0499999999998928        0.29999999999998744      0.3002900603981953
1.0999999999998933        0.29999999999998683      0.3062194423534559
1.149999999999892         0.14999999999998603      0.5032479667360397
1.1999999999998927        0.14999999999998545      0.30020440282557104
1.1499999999998924        0.1999999999999861       0.3099164466190883
1.1999999999998932        0.19999999999998552      0.30008989428993965
1.2499999999998916        0                        0.3075625067874442
1.2999999999998924        0                        0.3042351567465107
1.2499999999998923        0.049999999999992384     0.35336783995975435
1.2999999999998928        0.04999999999999207      0.4540165835769668
1.249999999999893         0.09999999999998477      0.30000201468966947
1.2999999999998935        0.09999999999998414      0.3010380817710294
0                         1.3499999999999994       0.30022344955314695
0.04999999999994723       1.349999999999999        0.31337378808099137
0.09999999999989446       1.3499999999999985       0.3027035236405869
0                         1.3999999999999995       0.30019115522630835
0.049999999999947545      1.399999999999999        0.31229243512224103