% Model:              Baseline_Circular_BIG_1.mph
% Version:            COMSOL 6.0.0.405
% Date:               Jun 9 2024, 19:06
% Dimension:          2
% Nodes:              40401
% Expressions:        1
% Description:        Surface
% X                       Y                        Dependent variable Phid
0                         0                        -0.2679081397611983
0.04999999999993898       0                        -0.2476203573938072
0.09999999999987796       0                        -0.1915740354554918
0                         0.05                     -0.26559532171700506
0.04999999999993929       0.0499999999999997       -0.23922406590822565
0.09999999999987857       0.04999999999999939      -0.16809407980546331
0                         0.1                      -0.26478529056193345
0.0499999999999396        0.0999999999999994       -0.235247958180098
0.0999999999998792        0.09999999999999878      -0.15659440362001414
0                         0.15000000000000002      -0.26615126836076525
0.04999999999993991       0.14999999999999938      -0.2375443121447516
0.09999999999987982       0.14999999999999877      -0.1614341184989062
0                         0.2                      -0.26928594179017795
0.04999999999994022       0.1999999999999994       -0.24554072455329948
0.09999999999988043       0.19999999999999876      -0.18108867976917975
0.14999999999987856       0                        -0.07598598545774872
0.19999999999987916       0                        0.08173549057820419
0.14999999999987915       0.04999999999999909      -0.029820035096982167
0.19999999999987972       0.04999999999999878      0.13774108267524066
0.14999999999987976       0.09999999999999817      -0.008430908293234406
0.1999999999998803        0.09999999999999756      0.16098219988685744
0                         0.25                     -0.27317784463826833
0.04999999999994051       0.24999999999999942      -0.25637404284682774
0.09999999999988102       0.24999999999999878      -0.2091722196144691
0                         0.3                      -0.27672592543056634
0.04999999999994079       0.2999999999999994       -0.2667374496654157
0.09999999999988159       0.2999999999999988       -0.2371745488404234
0.1499999999998804        0.1499999999999982       -0.016289923818922115
0.19999999999988097       0.14999999999999758      0.15330330696038436
0.14999999999988103       0.19999999999999818      -0.0518823396028874
0.19999999999988163       0.19999999999999762      0.11364213467353071
0.24999999999987976       0                        0.21552306910385916
0.29999999999988036       0                        0.2916643775972888
0.24999999999988035       0.049999999999998476     0.25899015129536396
0.299999999999881         0.04999999999999818      0.31822799670086965
0.24999999999988093       0.09999999999999695      0.2749374466271007
0.2999999999998816        0.09999999999999636      0.32690685959835797
0                         0.35                     -0.2792402289325788
0.049999999999941105      0.34999999999999937      -0.2745207022690623
0.09999999999988221       0.34999999999999876      -0.258841752416413
0                         0.3999999999999999       -0.2806260782291428
0.04999999999994141       0.39999999999999936      -0.27925087316964536
0.09999999999988282       0.39999999999999875      -0.2725336096050701
0.14999999999988162       0.2499999999999982       -0.10828952890843485
0.19999999999988222       0.2499999999999976       0.04009989832549912
0.1499999999998822        0.2999999999999982       -0.17034051486585516
0.19999999999988283       0.2999999999999976       -0.057152334042829475
0.24999999999988157       0.14999999999999697      0.27031062695849806
0.2999999999998822        0.14999999999999633      0.3249109031721928
0.2499999999998822        0.19999999999999696      0.24235800395608806
0.2999999999998828        0.19999999999999632      0.3097177450543254
0.34999999999988096       0                        0.3251685476707222
0.39999999999988156       0                        0.3375700476110808
0.3499999999998816        0.049999999999997866     0.34117455888398623
0.39999999999988217       0.04999999999999756      0.34868695715942344
0.3499999999998822        0.09999999999999573      0.3458642343676534
0.3999999999998828        0.09999999999999512      0.35162179811774263
0                         0.4499999999999999       -0.2812409086923036
0.04999999999994173       0.4499999999999993       -0.28158067856033625
0.09999999999988346       0.44999999999999873      -0.2797430132706486
0                         0.4999999999999999       -0.28185503043866045
0.04999999999994204       0.49999999999999933      -0.2827496776211286
0.09999999999988408       0.4999999999999988       -0.283010865337688
0.14999999999988278       0.34999999999999815      -0.22155197020837236
0.1999999999998834        0.34999999999999754      -0.15167483521672476
0.1499999999998834        0.39999999999999813      -0.2551095801564323
0.199999999999884         0.3999999999999975       -0.22043059350963423
0.24999999999988282       0.24999999999999697      0.181072968661051
0.29999999999988336       0.24999999999999634      0.27093542619130423
0.2499999999998834        0.299999999999997        0.07820312434379385
0.29999999999988397       0.2999999999999964       0.18863811176930106
0.3499999999998828        0.14999999999999575      0.3451834620352604
0.39999999999988345       0.14999999999999516      0.35132447833824376
0.3499999999998834        0.19999999999999576      0.33721435516356524
0.39999999999988406       0.1999999999999952       0.3461314380595168
0.44999999999988216       0                        0.34013024137094977
0.49999999999988276       0                        0.33366767082844656
0.4499999999998828        0.04999999999999725      0.35037859696816676
0.49999999999988337       0.049999999999996936     0.3466524840818284
0.4499999999998834        0.0999999999999945       0.35274460246623013
0.499999999999884         0.09999999999999387      0.34932903709232715
0                         0.5499999999999998       -0.282813981808097
0.049999999999942354      0.5499999999999994       -0.28361479188507527
0.09999999999988471       0.5499999999999987       -0.2843887952102158
0                         0.5999999999999999       -0.283637607658262
0.04999999999994266       0.5999999999999993       -0.284264868415205
0.09999999999988532       0.5999999999999988       -0.28502927436630093
0.149999999999884         0.4499999999999981       -0.27312372176817873
0.1999999999998846        0.4499999999999975       -0.2589207283922156
0.14999999999988464       0.49999999999999817      -0.28125956645577055
0.19999999999988521       0.49999999999999756      -0.27648410068557866
0.24999999999988398       0.349999999999997        -0.051575740235368775
0.2999999999998846        0.3499999999999963       0.052059140279320334
0.24999999999988456       0.3999999999999969       -0.1655811547416808
0.29999999999988514       0.39999999999999625      -0.09868503058355876
0.34999999999988396       0.24999999999999578      0.31366885134092837
0.3999999999998846        0.24999999999999523      0.32894380114569316
0.34999999999988457       0.2999999999999958       0.2532785064795032
0.39999999999988517       0.2999999999999952       0.27950856701334253
0.44999999999988394       0.14999999999999453      0.35200791693225236
0.49999999999988454       0.14999999999999392      0.34723444652283203
0.4499999999998846        0.19999999999999457      0.3463620627647848
0.4999999999998851        0.19999999999999393      0.33777743240278135
0.5499999999998834        0                        0.3109769362235516
0.599999999999884         0                        0.2514312317696152
0.5499999999998839        0.049999999999996644     0.3314078837269753
0.5999999999998846        0.04999999999999635      0.28569468042120977
0.5499999999998846        0.09999999999999329      0.33594465055807976
0.5999999999998853        0.0999999999999927       0.2948647529430832
0                         0.6499999999999998       -0.2843099105513005
0.04999999999994295       0.6499999999999992       -0.28482575290907397
0.0999999999998859        0.6499999999999987       -0.2855002274839537
0                         0.6999999999999997       -0.28488003490630215
0.04999999999994325       0.6999999999999992       -0.28534472423354257
0.0999999999998865        0.6999999999999986       -0.285907782703481
0.14999999999988525       0.5499999999999982       -0.2844575595312168
0.19999999999988582       0.5499999999999975       -0.2833774776534852
0.14999999999988586       0.5999999999999981       -0.2855836230543876
0.1999999999998864        0.5999999999999974       -0.2856853124562417
0.24999999999988518       0.4499999999999969       -0.23538932799732082
0.29999999999988575       0.4499999999999963       -0.2048017559344176
0.24999999999988579       0.4999999999999969       -0.26822000743615426
0.29999999999988636       0.4999999999999963       -0.25743943736296215
0.3499999999998852        0.3499999999999958       0.1293032729483481
0.3999999999998858        0.34999999999999526      0.16596486510796657
0.34999999999988574       0.3999999999999958       -0.03882694492131015
0.39999999999988634       0.3999999999999953       -0.0066297650956787905
0.44999999999988516       0.24999999999999462      0.32827990204487195
0.4999999999998857        0.24999999999999395      0.31179489092026375
0.4499999999998857        0.2999999999999946       0.27683242053681206
0.4999999999998863        0.299999999999994        0.24720092167720384
0.5499999999998851        0.1499999999999933       0.3313142111093142
0.5999999999998857        0.14999999999999275      0.285749628926208
0.5499999999998857        0.19999999999999335      0.31350340476071
0.5999999999998863        0.1999999999999928       0.2539028924814316
0.6499999999998846        0                        0.13194187423451956
0.6999999999998852        0                        -0.02990449532302073
0.6499999999998852        0.049999999999996034     0.1807828523804059
0.6999999999998858        0.049999999999995715     0.016736641476781913
0.6499999999998859        0.09999999999999207      0.19594343949233006
0.6999999999998865        0.09999999999999143      0.03284581699790426
0                         0.7499999999999998       -0.28521180988748923
0.04999999999994355       0.7499999999999991       -0.2855708807254913
0.0999999999998871        0.7499999999999987       -0.2859312851945037
0                         0.7999999999999997       -0.2846539913893428
0.04999999999994385       0.7999999999999992       -0.28429310244728506
0.0999999999998877        0.7999999999999986       -0.2837705685431508
0.14999999999988647       0.649999999999998        -0.28610217607707755
0.19999999999988702       0.6499999999999975       -0.28654860155574485
0.14999999999988706       0.699999999999998        -0.28638132265496874
0.19999999999988763       0.6999999999999974       -0.28675988818659603
0.24999999999988637       0.5499999999999969       -0.28110217876572924
0.2999999999998869        0.5499999999999963       -0.27810131612979055
0.24999999999988698       0.5999999999999969       -0.28539325474984356
0.2999999999998875        0.5999999999999963       -0.28508055392532544
0.34999999999988635       0.44999999999999574      -0.1754224372133778
0.39999999999988695       0.44999999999999524      -0.15885905874293282
0.34999999999988696       0.4999999999999957       -0.2471737399053523
0.39999999999988756       0.49999999999999517      -0.2414508893825889
0.4499999999998863        0.3499999999999946       0.1607207195581169
0.49999999999988687       0.349999999999994        0.11882626130073887
0.44999999999988693       0.39999999999999464      -0.011373778690882673
0.4999999999998875        0.39999999999999397      -0.04901180244970347
0.5499999999998864        0.24999999999999337      0.2708770621591853
0.5999999999998868        0.2499999999999928       0.18739958526916262
0.5499999999998869        0.2999999999999934       0.1830940968310999
0.5999999999998875        0.29999999999999283      0.07756049508361719
0.6499999999998863        0.1499999999999921       0.18107542428480985
0.6999999999998869        0.14999999999999147      0.01649056116310857
0.6499999999998869        0.19999999999999216      0.13425446180849046
0.6999999999998875        0.19999999999999152      -0.02938126818634044
0.7499999999998858        0                        -0.16525990974024427
0.7999999999998864        0                        -0.238099107056215
0.7499999999998864        0.049999999999995416     -0.13870308162991224
0.7999999999998869        0.04999999999999512      -0.22825406216440342
0.749999999999887         0.09999999999999083      -0.1292213134052338
0.7999999999998875        0.09999999999999024      -0.22521110638145816
0                         0.8499999999999996       -0.28159883298061306
0.04999999999994416       0.8499999999999992       -0.2786271500873106
0.09999999999988832       0.8499999999999985       -0.27512644776512346
0                         0.8999999999999997       -0.2720887456364182
0.04999999999994447       0.8999999999999991       -0.2612696271288783
0.09999999999988894       0.8999999999999986       -0.24857238429833212
0.14999999999988767       0.749999999999998        -0.2861450344042432
0.19999999999988824       0.7499999999999974       -0.28618605776613626
0.14999999999988828       0.799999999999998        -0.2830944428086645
0.19999999999988885       0.7999999999999975       -0.28231987946709064
0.2499999999998876        0.6499999999999968       -0.2869833365512024
0.29999999999988813       0.6499999999999964       -0.28754307933024276
0.2499999999998882        0.6999999999999968       -0.28738980648969253
0.29999999999988874       0.6999999999999963       -0.28825005252360847
0.3499999999998875        0.5499999999999957       -0.2753088849074809
0.3999999999998881        0.5499999999999952       -0.2737522177561678
0.3499999999998881        0.5999999999999958       -0.2847351526990519
0.3999999999998887        0.5999999999999952       -0.284487049961455
0.4499999999998875        0.4499999999999946       -0.16162556515873847
0.4999999999998881        0.44999999999999407      -0.1816577604124592
0.4499999999998881        0.49999999999999467      -0.24263942275098171
0.49999999999988864       0.4999999999999941       -0.2499017184225178
0.5499999999998875        0.3499999999999934       0.042099599499754864
0.5999999999998881        0.3499999999999929       -0.05763502664539877
0.549999999999888         0.39999999999999347      -0.10833129689819694
0.5999999999998886        0.3999999999999929       -0.1721020414467794
0.6499999999998874        0.24999999999999217      0.052405170528866174
0.699999999999888         0.24999999999999156      -0.09630699821933363
0.649999999999888         0.2999999999999922       -0.053242856825790476
0.6999999999998886        0.2999999999999916       -0.16660837344360233
0.7499999999998874        0.14999999999999086      -0.139909883331676
0.799999999999888         0.1499999999999903       -0.23016526654989025
0.7499999999998881        0.19999999999999094      -0.16710311951649404
0.7999999999998886        0.19999999999999035      -0.24134876994345092
0.849999999999887         0                        -0.26540152660139366
0.8999999999998876        0                        -0.27205146046445416
0.8499999999998875        0.04999999999999482      -0.26293717883676937
0.8999999999998881        0.04999999999999452      -0.27248847108042
0.8499999999998881        0.09999999999998964      -0.2630213460173683
0.8999999999998887        0.09999999999998904      -0.2738341117294682
0                         0.9499999999999997       -0.2489662166272875
0.04999999999994478       0.9499999999999992       -0.21924106346684366
0.09999999999988957       0.9499999999999986       -0.18325612270204414
0                         0.9999999999999997       -0.2006846469259413
0.04999999999994509       0.9999999999999991       -0.13535977458705023
0.09999999999989018       0.9999999999999987       -0.06178570300783922
0.1499999999998889        0.8499999999999981       -0.27144417988549974
0.19999999999988943       0.8499999999999974       -0.26820953699651784
0.1499999999998895        0.899999999999998        -0.23532833748223556
0.19999999999989004       0.8999999999999975       -0.22416626978661972
0.24999999999988876       0.7499999999999969       -0.2865518823735851
0.2999999999998893        0.7499999999999962       -0.2877326703290528
0.24999999999988937       0.7999999999999969       -0.2820990848942032
0.29999999999988985       0.7999999999999963       -0.2834689986694684
0.34999999999988873       0.6499999999999958       -0.288000745189221
0.39999999999988933       0.6499999999999952       -0.288180724504533
0.3499999999998893        0.6999999999999957       -0.2890654902170736
0.3999999999998899        0.6999999999999952       -0.2894844821017678
0.4499999999998887        0.5499999999999946       -0.27407505385568093
0.49999999999988926       0.549999999999994        -0.2761229895849321
0.44999999999988927       0.5999999999999945       -0.2844857810500813
0.49999999999988987       0.599999999999994        -0.28472761052504586
0.5499999999998886        0.4499999999999935       -0.21085091920534652
0.5999999999998892        0.44999999999999285      -0.23956832924872667
0.5499999999998892        0.49999999999999345      -0.2602302465979653
0.5999999999998897        0.4999999999999928       -0.27014045641176754
0.6499999999998886        0.34999999999999226      -0.15336854988925577
0.6999999999998892        0.34999999999999165      -0.22209298871817176
0.6499999999998891        0.3999999999999923       -0.22364034712860922
0.6999999999998897        0.3999999999999917       -0.2568414601639536
0.7499999999998886        0.249999999999991        -0.20233965925077857
0.7999999999998892        0.24999999999999042      -0.2551199535766225
0.7499999999998892        0.29999999999999105      -0.23556627536888808
0.7999999999998898        0.2999999999999905       -0.26757758125521747
0.8499999999998886        0.14999999999998967      -0.26559174830923443
0.8999999999998892        0.14999999999998906      -0.2758224301194597
0.8499999999998892        0.1999999999999897       -0.27004000420347446
0.8999999999998898        0.19999999999998908      -0.27827969560326304
0.9499999999998882        0                        -0.2733009242571908
0.9999999999998888        0                        -0.27305546759528093
0.9499999999998887        0.0499999999999942       -0.27383445323327166
0.9999999999998893        0.04999999999999388      -0.2726029430537475
0.9499999999998893        0.0999999999999884       -0.2752600265954765
0.9999999999998899        0.09999999999998777      -0.27351826876848256
0                         1.0499999999999996       -0.11843155657505836
0.049999999999945394      1.049999999999999        -0.009428598704523
0.09999999999989079       1.0499999999999985       0.0922713345436177
0                         1.0999999999999996       -0.011786666222950486
0.049999999999945706      1.099999999999999        0.12140240474214524
0.09999999999989141       1.0999999999999983       0.21758830240595264
0.1499999999998901        0.949999999999998        -0.14725861699788298
0.19999999999989065       0.9499999999999975       -0.11875444692419576
0.14999999999989072       0.9999999999999981       0.0029280313300637344
0.19999999999989124       0.9999999999999976       0.04775765426508786
0.24999999999988998       0.8499999999999969       -0.26670902664060175
0.29999999999989047       0.8499999999999963       -0.267839198771279
0.2499999999998906        0.899999999999997        -0.21816915392813688
0.29999999999989113       0.8999999999999965       -0.21915062552711356
0.3499999999998899        0.7499999999999958       -0.288995301078223
0.3999999999998905        0.7499999999999951       -0.2897730771180691
0.3499999999998905        0.7999999999999957       -0.2853733007410412
0.3999999999998911        0.7999999999999952       -0.28711237745793117
0.4499999999998899        0.6499999999999946       -0.2880651251473278
0.4999999999998904        0.649999999999994        -0.28765523935691223
0.4499999999998905        0.6999999999999946       -0.2893918353241289
0.49999999999989103       0.6999999999999941       -0.28883934997875854
0.5499999999998898        0.5499999999999935       -0.27902662467655626
0.5999999999998903        0.5499999999999928       -0.28158230303006154
0.5499999999998904        0.5999999999999934       -0.2849934982113435
0.5999999999998908        0.5999999999999929       -0.284939593990118
0.6499999999998898        0.4499999999999923       -0.2612624827940445
0.6999999999998905        0.44999999999999174      -0.27450071159849015
0.6499999999998904        0.4999999999999923       -0.2774714078228961
0.6999999999998912        0.4999999999999918       -0.28165010898123366
0.7499999999998898        0.34999999999999104      -0.25985036756836327
0.7999999999998904        0.34999999999999043      -0.27645310837174475
0.7499999999998903        0.39999999999999103      -0.2742102082345201
0.7999999999998909        0.39999999999999036      -0.2814305889387209
0.8499999999998897        0.24999999999998979      -0.2750944170792723
0.8999999999998903        0.24999999999998915      -0.2806457756308607
0.8499999999998904        0.29999999999998983      -0.27940570180680563
0.8999999999998909        0.2999999999999892       -0.28245811037145974
0.9499999999998898        0.14999999999998845      -0.27722842403365044
0.9999999999998904        0.14999999999998784      -0.27578069047445714
0.9499999999998904        0.1999999999999885       -0.27939108948693353
0.999999999999891         0.1999999999999879       -0.27826539954485363
1.0499999999998892        0                        -0.2724577983168393
1.09999999999989          0                        -0.2722789385829816
1.04999999999989          0.049999999999993584     -0.2713108963723471
1.0999999999998904        0.049999999999993286     -0.27138533424874656
1.0499999999998906        0.09999999999998717      -0.2717229194902979
1.099999999999891         0.09999999999998657      -0.27193642461853407
0                         1.1499999999999995       0.09095226151497474
0.049999999999946004      1.149999999999999        0.21733042892567578
0.09999999999989201       1.1499999999999986       0.2885929068807589
0                         1.1999999999999995       0.16606759355370668
0.0499999999999463        1.199999999999999        0.2730957198293557
0.0999999999998926        1.1999999999999986       0.32267381886631996
0.14999999999989133       1.049999999999998        0.1633877815819792
0.19999999999989185       1.0499999999999976       0.20398584123185778
0.14999999999989194       1.0999999999999979       0.26989098506637565
0.19999999999989246       1.0999999999999974       0.2941456508080534
0.2499999999998912        0.9499999999999971       -0.10364330657039718
0.2999999999998917        0.9499999999999964       -0.1044108495648145
0.24999999999989175       0.9999999999999969       0.06954639566063794
0.2999999999998923        0.9999999999999962       0.06918762091044459
0.34999999999989106       0.8499999999999959       -0.2712320674610726
0.39999999999989166       0.8499999999999952       -0.275876314742777
0.3499999999998916        0.8999999999999959       -0.22702189778712065
0.39999999999989216       0.8999999999999952       -0.23988224136701367
0.44999999999989104       0.7499999999999946       -0.28995942925239176
0.49999999999989164       0.749999999999994        -0.2895744907222388
0.44999999999989165       0.7999999999999946       -0.28840326585263304
0.4999999999998922        0.799999999999994        -0.28899081798152293
0.549999999999891         0.6499999999999935       -0.2869628131323668
0.5999999999998915        0.6499999999999928       -0.285933280610489
0.5499999999998916        0.6999999999999935       -0.2878681607647004
0.5999999999998922        0.6999999999999929       -0.28651462814041767
0.649999999999891         0.5499999999999923       -0.2831953227328986
0.6999999999998918        0.5499999999999918       -0.28371933625503803
0.6499999999998916        0.5999999999999923       -0.2845238740963691
0.6999999999998924        0.5999999999999919       -0.283753573754946
0.7499999999998909        0.4499999999999911       -0.281007490882169
0.7999999999998915        0.4499999999999904       -0.28335974011948317
0.7499999999998916        0.4999999999999911       -0.2832574712683001
0.799999999999892         0.49999999999999045      -0.28340146669216515
0.8499999999998911        0.3499999999999898       -0.2823002596650226
0.8999999999998916        0.34999999999998926      -0.28348352036935315
0.8499999999998915        0.3999999999999898       -0.28360041235912725
0.8999999999998922        0.3999999999999893       -0.2836089088839302
0.9499999999998909        0.24999999999998856      -0.28122007566758467
0.9999999999998915        0.24999999999998798      -0.28017706537054
0.9499999999998915        0.2999999999999886       -0.28244503669622884
0.9999999999998921        0.29999999999998805      -0.2812567143466581
1.049999999999891         0.14999999999998725      -0.2743763619752205
1.0999999999998915        0.14999999999998664      -0.2740016182162911
1.0499999999998915        0.1999999999999873       -0.27706047794698213
1.099999999999892         0.1999999999999867       -0.2762758471817451
1.1499999999998907        0                        -0.27263098419216514
1.1999999999998912        0                        -0.2732038202789238
1.149999999999891         0.04999999999999299      -0.2721826095117628
1.1999999999998918        0.04999999999999269      -0.2730265429720322
1.1499999999998916        0.09999999999998598      -0.27276623419598356
1.1999999999998923        0.09999999999998538      -0.2735408223181061
0                         1.2499999999999996       0.20877830913993933
0.049999999999946615      1.2499999999999991       0.30075218198519604
0.09999999999989323       1.2499999999999987       0.3387536755590715
0                         1.2999999999999994       0.22392478114053285
0.04999999999994692       1.299999999999999        0.3104047399094384
0.09999999999989384       1.2999999999999985       0.34481189865823825
0.14999999999989252       1.149999999999998        0.3198548058395165
0.19999999999989304       1.1499999999999975       0.33140728606366043
0.1499999999998931        1.199999999999998        0.34073429949417205
0.1999999999998936        1.1999999999999975       0.3450883027264718
0.24999999999989236       1.0499999999999967       0.22163218845445418
0.2999999999998929        1.0499999999999963       0.22168828994598372
0.24999999999989297       1.0999999999999968       0.30349737406418364
0.2999999999998935        1.099999999999996        0.3036464823781048
0.34999999999989223       0.949999999999996        -0.12099305790202583
0.3999999999998928        0.9499999999999953       -0.15054567149130388
0.34999999999989284       0.9999999999999958       0.04691191202548054
0.39999999999989333       0.9999999999999953       0.003138539306111322
0.44999999999989215       0.8499999999999946       -0.2806436367613228
0.4999999999998927        0.8499999999999941       -0.2844363580811745
0.4499999999998927        0.8999999999999947       -0.2546263265765534
0.4999999999998932        0.8999999999999941       -0.26786058585960854
0.5499999999998921        0.7499999999999936       -0.2886667267759284
0.5999999999998927        0.7499999999999929       -0.2873240698273117
0.5499999999998928        0.7999999999999935       -0.2888423999561054
0.5999999999998933        0.7999999999999929       -0.2880290303811396
0.649999999999892         0.6499999999999924       -0.28468352606961633
0.6999999999998927        0.6499999999999918       -0.2834375331665685
0.6499999999998926        0.6999999999999923       -0.28498393416964485
0.6999999999998929        0.6999999999999917       -0.2834864191531645
0.7499999999998921        0.5499999999999912       -0.28334580083665434
0.7999999999998925        0.5499999999999905       -0.28247572447080443
0.7499999999998926        0.5999999999999912       -0.28265284960857334
0.7999999999998929        0.5999999999999905       -0.28132764455563786
0.849999999999892         0.44999999999998985      -0.28362680791224665
0.8999999999998927        0.4499999999999893       -0.283014167228291
0.8499999999998926        0.4999999999999899       -0.2829263890350396
0.8999999999998931        0.49999999999998934      -0.2821292017721299
0.949999999999892         0.34999999999998865      -0.28295093633350776
0.9999999999998926        0.34999999999998804      -0.2813006320700645
0.9499999999998927        0.3999999999999887       -0.28266174999308147
0.9999999999998932        0.39999999999998803      -0.2801216144940629
1.0499999999998921        0.24999999999998737      -0.2788978016061557
1.0999999999998926        0.24999999999998676      -0.2775235688459315
1.0499999999998928        0.29999999999998744      -0.2794280185098714
1.0999999999998933        0.29999999999998683      -0.27646055192755015
1.149999999999892         0.14999999999998603      -0.27426592445581904
1.1999999999998927        0.14999999999998545      -0.27466078857375376
1.1499999999998924        0.1999999999999861       -0.27579872990492266
1.1999999999998932        0.19999999999998552      -0.2753901956100349
1.2499999999998916        0                        -0.2739108406477668
1.2999999999998924        0                        -0.2747124787999599
1.2499999999998923        0.049999999999992384     -0.273963582049052
1.2999999999998928        0.04999999999999207      -0.27493924814637727
1.249999999999893         0.09999999999998477      -0.27454410740846