% Model:              Baseline_Circular_BIG_1.mph
% Version:            COMSOL 6.0.0.405
% Date:               Jun 9 2024, 19:06
% Dimension:          2
% Nodes:              40401
% Expressions:        1
% Description:        Surface
% X                       Y                        Dependent variable Phiw
0                         0                        0.6206981652756429
0.04999999999993898       0                        0.596852112105869
0.09999999999987796       0                        0.5365564608458387
0                         0.05                     0.6177813001356226
0.04999999999993929       0.0499999999999997       0.587479045064541
0.09999999999987857       0.04999999999999939      0.5117527638181929
0                         0.1                      0.6165431877572762
0.0499999999999396        0.0999999999999994       0.5829595572731129
0.0999999999998792        0.09999999999999878      0.4995933794096326
0                         0.15000000000000002      0.6175919349175356
0.04999999999993991       0.14999999999999938      0.585200202614723
0.09999999999987982       0.14999999999999877      0.5045745121278705
0                         0.2                      0.6206377612491896
0.04999999999994022       0.1999999999999994       0.593445436911832
0.09999999999988043       0.19999999999999876      0.5249594644178367
0.14999999999987856       0                        0.4161402859915541
0.19999999999987916       0                        0.25344356555269276
0.14999999999987915       0.04999999999999909      0.36835041119796164
0.19999999999987972       0.04999999999999878      0.19557783195265263
0.14999999999987976       0.09999999999999817      0.3462249373741304
0.1999999999998803        0.09999999999999756      0.1715590160155204
0                         0.25                     0.6247222474816972
0.04999999999994051       0.24999999999999942      0.6048305893694198
0.09999999999988102       0.24999999999999878      0.5540360226274107
0                         0.3                      0.6287313495222366
0.04999999999994079       0.2999999999999994       0.616039387459677
0.09999999999988159       0.2999999999999988       0.5833128646110933
0.1499999999998804        0.1499999999999982       0.354403707868873
0.19999999999988097       0.14999999999999758      0.17965724551038229
0.14999999999988103       0.19999999999999818      0.39121270164363176
0.19999999999988163       0.19999999999999762      0.2207545468207062
0.24999999999987976       0                        0.11508031774252454
0.29999999999988036       0                        0.035298159902997006
0.24999999999988035       0.049999999999998476     0.06963080561293755
0.299999999999881         0.04999999999999818      0.006718444271104725
0.24999999999988093       0.09999999999999695      0.05289831276279368
0.2999999999998816        0.09999999999999636      -0.002738422832331275
0                         0.35                     0.6319002094952023
0.049999999999941105      0.34999999999999937      0.6248578992029703
0.09999999999988221       0.34999999999999876      0.6065047786376729
0                         0.3999999999999999       0.6340249864858355
0.04999999999994141       0.39999999999999936      0.6307064107167438
0.09999999999988282       0.39999999999999875      0.6217801752324417
0.14999999999988162       0.2499999999999982       0.4491133501900855
0.19999999999988222       0.2499999999999976       0.29641161858493054
0.1499999999998822        0.2999999999999982       0.5129785877686337
0.19999999999988283       0.2999999999999976       0.3962627017576771
0.24999999999988157       0.14999999999999697      0.058004027369570096
0.2999999999998822        0.14999999999999633      -1.7478489965055507E-4
0.2499999999998822        0.19999999999999696      0.08763486592743244
0.2999999999998828        0.19999999999999632      0.016960374525585447
0.34999999999988096       0                        -6.300211587989422E-4
0.39999999999988156       0                        -0.014150311692366526
0.3499999999998816        0.049999999999997866     -0.018647197723010885
0.39999999999988217       0.04999999999999756      -0.027299810341638458
0.3499999999998822        0.09999999999999573      -0.024109371437694496
0.3999999999998828        0.09999999999999512      -0.03099232955500875
0                         0.4499999999999999       0.635318985506395
0.04999999999994173       0.4499999999999993       0.634079680550153
0.09999999999988346       0.44999999999999873      0.6303901006031097
0                         0.4999999999999999       0.6361579016764664
0.04999999999994204       0.49999999999999933      0.6358865510172753
0.09999999999988408       0.4999999999999988       0.6346890303815425
0.14999999999988278       0.34999999999999815      0.5663423670532681
0.1999999999998834        0.34999999999999754      0.4936733177411581
0.1499999999998834        0.39999999999999813      0.6020704229510081
0.199999999999884         0.3999999999999975       0.5652439543727469
0.24999999999988282       0.24999999999999697      0.15162162484390884
0.29999999999988336       0.24999999999999634      0.05902915020859155
0.2499999999998834        0.299999999999997        0.25787569536253646
0.29999999999988397       0.2999999999999964       0.14555598278526355
0.3499999999998828        0.14999999999999575      -0.02278297328339947
0.39999999999988345       0.14999999999999516      -0.030025850722134
0.3499999999998834        0.19999999999999576      -0.012679685515404635
0.39999999999988406       0.1999999999999952       -0.022658218434509176
0.44999999999988216       0                        -0.016367126736234108
0.49999999999988276       0                        -0.007913118632209218
0.4499999999998828        0.04999999999999725      -0.028661058809952174
0.49999999999988337       0.049999999999996936     -0.023069738568368574
0.4499999999998834        0.0999999999999945       -0.031887573612404574
0.499999999999884         0.09999999999999387      -0.026932806626563888
0                         0.5499999999999998       0.6367834323537791
0.049999999999942354      0.5499999999999994       0.6368663143967997
0.09999999999988471       0.5499999999999987       0.6366768611270586
0                         0.5999999999999999       0.6372458136815268
0.04999999999994266       0.5999999999999993       0.6374163980411123
0.09999999999988532       0.5999999999999988       0.6375539500786107
0.149999999999884         0.4499999999999981       0.621981444092098
0.1999999999998846        0.4499999999999975       0.6061694965164004
0.14999999999988464       0.49999999999999817      0.6315922046323003
0.19999999999988521       0.49999999999999756      0.625644738373801
0.24999999999988398       0.349999999999997        0.3912657847321452
0.2999999999998846        0.3499999999999963       0.2864090821450574
0.24999999999988456       0.3999999999999969       0.5086708193754054
0.29999999999988514       0.39999999999999625      0.44091074557722165
0.34999999999988396       0.24999999999999578      0.014615261035943348
0.3999999999998846        0.24999999999999523      -0.0016568625399647
0.34999999999988457       0.2999999999999958       0.0802477178949971
0.39999999999988517       0.2999999999999952       0.05334597936534588
0.44999999999988394       0.14999999999999453      -0.03062790420564369
0.49999999999988454       0.14999999999999392      -0.02458387947960857
0.4499999999998846        0.19999999999999457      -0.02296634756626878
0.4999999999998851        0.19999999999999393      -0.013467722136532148
0.5499999999998834        0                        0.01792410566320393
0.599999999999884         0                        0.08044907397161753
0.5499999999998839        0.049999999999996644     -0.004959669467290877
0.5999999999998846        0.04999999999999635      0.04384523315067792
0.5499999999998846        0.09999999999999329      -0.01097325233984779
0.5999999999998853        0.0999999999999927       0.033401175316024656
0                         0.6499999999999998       0.6375710336466036
0.04999999999994295       0.6499999999999992       0.6377370621006762
0.0999999999998859        0.6499999999999987       0.6379410995605725
0                         0.6999999999999997       0.6377170984498653
0.04999999999994325       0.6999999999999992       0.6378047179130072
0.0999999999998865        0.6999999999999986       0.6379194030929378
0.14999999999988525       0.5499999999999982       0.6357978108957405
0.19999999999988582       0.5499999999999975       0.6338999845193241
0.14999999999988586       0.5999999999999981       0.6374638042135466
0.1999999999998864        0.5999999999999974       0.6370152905775943
0.24999999999988518       0.4499999999999969       0.5813490445673062
0.29999999999988575       0.4499999999999963       0.5500200474639272
0.24999999999988579       0.4999999999999969       0.6164123743879747
0.29999999999988636       0.4999999999999963       0.6049403982953735
0.3499999999998852        0.3499999999999958       0.2094252497046721
0.3999999999998858        0.34999999999999526      0.17266484003875118
0.34999999999988574       0.3999999999999958       0.3809657585086953
0.39999999999988634       0.3999999999999953       0.34833554370439246
0.44999999999988516       0.24999999999999462      -0.001417326108102951
0.4999999999998857        0.24999999999999395      0.015504438026621863
0.4499999999998857        0.2999999999999946       0.05479837349927139
0.4999999999998863        0.299999999999994        0.0841577958028799
0.5499999999998851        0.1499999999999933       -0.006254437474192044
0.5999999999998857        0.14999999999999275      0.042559276983165244
0.5499999999998857        0.19999999999999335      0.012874534772833866
0.5999999999998863        0.1999999999999928       0.07564070211570394
0.6499999999998846        0                        0.20331102757727798
0.6999999999998852        0                        0.3691823213731748
0.6499999999998852        0.049999999999996034     0.15245692874060712
0.6999999999998858        0.049999999999995715     0.32090247341262174
0.6499999999998859        0.09999999999999207      0.13628980317520328
0.6999999999998865        0.09999999999999143      0.30397488971733033
0                         0.7499999999999998       0.6374810306482714
0.04999999999994355       0.7499999999999991       0.6373015480795375
0.0999999999998871        0.7499999999999987       0.6370834566211423
0                         0.7999999999999997       0.6361351374811927
0.04999999999994385       0.7999999999999992       0.6349833305243806
0.0999999999998877        0.7999999999999986       0.6335876944739836
0.14999999999988647       0.649999999999998        0.6380803512907771
0.19999999999988702       0.6499999999999975       0.6381152538329282
0.14999999999988706       0.699999999999998        0.6380045986147315
0.19999999999988763       0.6999999999999974       0.6380793152716994
0.24999999999988637       0.5499999999999969       0.6309156198663711
0.2999999999998869        0.5499999999999963       0.6272694269900811
0.24999999999988698       0.5999999999999969       0.6362211053602479
0.2999999999998875        0.5999999999999963       0.6352578282677178
0.34999999999988635       0.44999999999999574      0.5202590680274313
0.39999999999988695       0.44999999999999524      0.5030529857666067
0.34999999999988696       0.4999999999999957       0.5941688546341926
0.39999999999988756       0.49999999999999517      0.5879626642685764
0.4499999999998863        0.3499999999999946       0.17589098756372012
0.49999999999988687       0.349999999999994        0.21691719702827417
0.44999999999988693       0.39999999999999464      0.35190770168809193
0.4999999999998875        0.39999999999999397      0.38885113012137423
0.5499999999998864        0.24999999999999337      0.058063667901147455
0.5999999999998868        0.2499999999999928       0.14439005940074673
0.5499999999998869        0.2999999999999934       0.14941408649975257
0.5999999999998875        0.29999999999999283      0.2572971124680913
0.6499999999998863        0.1499999999999921       0.15132391971576584
0.6999999999998869        0.14999999999999147      0.3205265022018033
0.6499999999998869        0.19999999999999216      0.1994123070739233
0.6999999999998875        0.19999999999999152      0.3675568401888745
0.7499999999998858        0                        0.5088568026325604
0.7999999999998864        0                        0.5859349415986089
0.7499999999998864        0.049999999999995416     0.48101343292624504
0.7999999999998869        0.04999999999999512      0.57508254714796
0.749999999999887         0.09999999999999083      0.47082863110461975
0.7999999999998875        0.09999999999999024      0.5713462268903053
0                         0.8499999999999996       0.632048416498756
0.04999999999994416       0.8499999999999992       0.6280317529082661
0.09999999999988832       0.8499999999999985       0.6231421572708483
0                         0.8999999999999997       0.6211401687491958
0.04999999999994447       0.8999999999999991       0.6090911175888747
0.09999999999988894       0.8999999999999986       0.5942111150560939
0.14999999999988767       0.749999999999998        0.6368297770686344
0.19999999999988824       0.7499999999999974       0.6366302086675398
0.14999999999988828       0.799999999999998        0.6321324747585303
0.19999999999988885       0.7999999999999975       0.6309331610713613
0.2499999999998876        0.6499999999999968       0.6380905984650079
0.29999999999988813       0.6499999999999964       0.6380671664245786
0.2499999999998882        0.6999999999999968       0.6382418900623852
0.29999999999988874       0.6999999999999963       0.6385285776528049
0.3499999999998875        0.5499999999999957       0.6239121261081998
0.3999999999998881        0.5499999999999952       0.6220001227724252
0.3499999999998881        0.5999999999999958       0.6343793611819959
0.3999999999998887        0.5999999999999952       0.6338740152983116
0.4499999999998875        0.4499999999999946       0.5051780676258982
0.4999999999998881        0.44999999999999407      0.5250218866361505
0.4499999999998881        0.49999999999999467      0.5888127181560172
0.49999999999988864       0.4999999999999941       0.5961548857347349
0.5499999999998875        0.3499999999999934       0.2943743666090073
0.5999999999998881        0.3499999999999929       0.3959636898610581
0.549999999999888         0.39999999999999347      0.4487020619748709
0.5999999999998886        0.3999999999999929       0.5139413911891463
0.6499999999998874        0.24999999999999217      0.2831848733883446
0.699999999999888         0.24999999999999156      0.4360023815441889
0.649999999999888         0.2999999999999922       0.39127124649639355
0.6999999999998886        0.2999999999999916       0.5081126325856925
0.7499999999998874        0.14999999999999086      0.4815671222348607
0.799999999999888         0.1499999999999903       0.5761310131103002
0.7499999999998881        0.19999999999999094      0.5094634095502366
0.7999999999998886        0.19999999999999035      0.5876083681522971
0.849999999999887         0                        0.617412001334542
0.8999999999998876        0                        0.62795154200693
0.8499999999998875        0.04999999999999482      0.6139649395995747
0.8999999999998881        0.04999999999999452      0.6270882319586725
0.8499999999998881        0.09999999999998964      0.6131543863380448
0.8999999999998887        0.09999999999998904      0.6273239250730742
0                         0.9499999999999997       0.5958888602883602
0.04999999999994478       0.9499999999999992       0.5645265815463308
0.09999999999988957       0.9499999999999986       0.5257789108166706
0                         0.9999999999999997       0.5445416888162985
0.04999999999994509       0.9999999999999991       0.47704050166534795
0.09999999999989018       0.9999999999999987       0.4002882334167085
0.1499999999998889        0.8499999999999981       0.6180569272153678
0.19999999999988943       0.8499999999999974       0.6138182943717685
0.1499999999998895        0.899999999999998        0.5787382402521493
0.19999999999989004       0.8999999999999975       0.5658908812285852
0.24999999999988876       0.7499999999999969       0.6366894771457541
0.2999999999998893        0.7499999999999962       0.6371277295890143
0.24999999999988937       0.7999999999999969       0.6304423018433032
0.29999999999988985       0.7999999999999963       0.6309610474060244
0.34999999999988873       0.6499999999999958       0.6380509168454126
0.39999999999988933       0.6499999999999952       0.6380394633007811
0.3499999999998893        0.6999999999999957       0.6388541057926068
0.3999999999998899        0.6999999999999952       0.6390976415052219
0.4499999999998887        0.5499999999999946       0.6222752572418963
0.49999999999988926       0.549999999999994        0.6245769168935976
0.44999999999988927       0.5999999999999945       0.6339343223179891
0.49999999999988987       0.599999999999994        0.6345167485237906
0.5499999999998886        0.4499999999999935       0.5547464224842952
0.5999999999998892        0.44999999999999285      0.5846476205649573
0.5499999999998892        0.49999999999999345      0.6070281258025274
0.5999999999998897        0.4999999999999928       0.6179108256543211
0.6499999999998886        0.34999999999999226      0.49427406935889007
0.6999999999998892        0.34999999999999165      0.5658338787899686
0.6499999999998891        0.3999999999999923       0.5675313751667418
0.6999999999998897        0.3999999999999917       0.6029743293344403
0.7499999999998886        0.249999999999991        0.5457840324195619
0.7999999999998892        0.24999999999999042      0.6019573218094185
0.7499999999998892        0.29999999999999105      0.5803819316408766
0.7999999999998898        0.2999999999999905       0.615318587689388
0.8499999999998886        0.14999999999998967      0.6152617328855365
0.8999999999998892        0.14999999999998906      0.6285542909936922
0.8499999999998892        0.1999999999999897       0.6195916402911951
0.8999999999998898        0.19999999999998908      0.6304733539433375
0.9499999999998882        0                        0.6311108355474389
0.9999999999998888        0                        0.6316951036156758
0.9499999999998887        0.0499999999999942       0.6309427476189153
0.9999999999998893        0.04999999999999388      0.6314862861115127
0.9499999999998893        0.0999999999999884       0.6314406931610563
0.9999999999998899        0.09999999999998777      0.6319117775039297
0                         1.0499999999999996       0.458542063489
0.049999999999945394      1.049999999999999        0.3465104097877588
0.09999999999989079       1.0499999999999985       0.24143445449912918
0                         1.0999999999999996       0.34830169795814686
0.049999999999945706      1.099999999999999        0.21142914226612636
0.09999999999989141       1.0999999999999983       0.1116309889802937
0.1499999999998901        0.949999999999998        0.48673029293635245
0.19999999999989065       0.9499999999999975       0.45593305210482543
0.14999999999989072       0.9999999999999981       0.33196582454702595
0.19999999999989124       0.9999999999999976       0.2844360113918603
0.24999999999988998       0.8499999999999969       0.6116145314944035
0.29999999999989047       0.8499999999999963       0.6121738814719003
0.2499999999998906        0.899999999999997        0.558844321018824
0.29999999999989113       0.8999999999999965       0.5594183159285127
0.3499999999998899        0.7499999999999958       0.6377814654676125
0.3999999999998905        0.7499999999999951       0.6384142687251115
0.3499999999998905        0.7999999999999957       0.6322933276944779
0.3999999999998911        0.7999999999999952       0.6340208235039861
0.4499999999998899        0.6499999999999946       0.6380434600972558
0.4999999999998904        0.649999999999994        0.6380463052118863
0.4499999999998905        0.6999999999999946       0.6391931456394482
0.49999999999989103       0.6999999999999941       0.6391174262883713
0.5499999999998898        0.5499999999999935       0.6279834122872596
0.5999999999998903        0.5499999999999928       0.6313646843424818
0.5499999999998904        0.5999999999999934       0.6353560873645308
0.5999999999998908        0.5999999999999929       0.6361157146474627
0.6499999999998898        0.4499999999999923       0.6078991771391357
0.6999999999998905        0.44999999999999174      0.6228533786796627
0.6499999999998904        0.4999999999999923       0.6264340736259457
0.6999999999998912        0.4999999999999918       0.6319280933447561
0.7499999999998898        0.34999999999999104      0.6063138138957643
0.7999999999998904        0.34999999999999043      0.6253261503612971
0.7499999999998903        0.39999999999999103      0.6224600510332906
0.7999999999998909        0.39999999999999036      0.6315644098628688
0.8499999999998897        0.24999999999998979      0.6248046261005855
0.8999999999998903        0.24999999999998915      0.6325759721659321
0.8499999999998904        0.29999999999998983      0.6295709401175464
0.8999999999998909        0.2999999999999892       0.6343774403711042
0.9499999999998898        0.14999999999998845      0.6324289976287069
0.9999999999998904        0.14999999999998784      0.6328683408048831
0.9499999999998904        0.1999999999999885       0.6336426130559542
0.999999999999891         0.1999999999999879       0.6339480684156921
1.0499999999998892        0                        0.6316727091014586
1.09999999999989          0                        0.631643144059095
1.04999999999989          0.049999999999993584     0.6313384130077737
1.0999999999998904        0.049999999999993286     0.631335155397118
1.0499999999998906        0.09999999999998717      0.6316452733729221
1.099999999999891         0.09999999999998657      0.6315863746109188
0                         1.1499999999999995       0.24262441544691093
0.049999999999946004      1.149999999999999        0.11241789099256466
0.09999999999989201       1.1499999999999986       0.037552363924068514
0                         1.1999999999999995       0.16559005462141968
0.0499999999999463        1.199999999999999        0.05498195743868385
0.0999999999998926        1.1999999999999986       0.0021204824956624064
0.14999999999989133       1.049999999999998        0.16668215643693787
0.19999999999989185       1.0499999999999976       0.12327934628665294
0.14999999999989194       1.0999999999999979       0.05586055772073416
0.19999999999989246       1.0999999999999974       0.028872934351190822
0.2499999999998912        0.9499999999999971       0.4395171623235522
0.2999999999998917        0.9499999999999964       0.43993160926997615
0.24999999999989175       0.9999999999999969       0.26117507548960117
0.2999999999998923        0.9999999999999962       0.26119333466655265
0.34999999999989106       0.8499999999999959       0.6153539303574163
0.39999999999989166       0.8499999999999952       0.6202481399260816
0.3499999999998916        0.8999999999999959       0.5675004156074817
0.39999999999989216       0.8999999999999952       0.5809419447375248
0.44999999999989104       0.7499999999999946       0.6388777063401512
0.49999999999989164       0.749999999999994        0.639090161430033
0.44999999999989165       0.7999999999999946       0.635741902283561
0.4999999999998922        0.799999999999994        0.6371288929258873
0.549999999999891         0.6499999999999935       0.6379885959083391
0.5999999999998915        0.6499999999999928       0.6378003183650216
0.5499999999998916        0.6999999999999935       0.6388549212255006
0.5999999999998922        0.6999999999999929       0.6384087200823023
0.649999999999891         0.5499999999999923       0.6339641029572428
0.6999999999998918        0.5499999999999918       0.6355375127843846
0.6499999999998916        0.5999999999999923       0.636581875566567
0.6999999999998924        0.5999999999999919       0.6366908574179805
0.7499999999998909        0.4499999999999911       0.6310123479837901
0.7999999999998915        0.4499999999999904       0.6347695761582798
0.7499999999998916        0.4999999999999911       0.6348364618571496
0.799999999999892         0.49999999999999045      0.6360234077557628
0.8499999999998911        0.3499999999999898       0.633090586911218
0.8999999999998916        0.34999999999998926      0.6355708753941619
0.8499999999998915        0.3999999999999898       0.6351848473963928
0.8999999999998922        0.3999999999999893       0.6360639679362792
0.9499999999998909        0.24999999999998856      0.6347587669398055
0.9999999999998915        0.24999999999998798      0.6347449065958669
0.9499999999998915        0.2999999999999886       0.6355177216542901
0.9999999999998921        0.29999999999998805      0.6349531557545157
1.049999999999891         0.14999999999998725      0.6325600786760274
1.0999999999998915        0.14999999999998664      0.6322995845913801
1.0499999999998915        0.1999999999999873       0.633511493016006
1.099999999999892         0.1999999999999867       0.6328805641313541
1.1499999999998907        0                        0.6317897101423778
1.1999999999998912        0                        0.6320542255837177
1.149999999999891         0.04999999999999299      0.6315889392419879
1.1999999999998918        0.04999999999999269      0.6319423520415008
1.1499999999998916        0.09999999999998598      0.6317891058437354
1.1999999999998923        0.09999999999998538      0.6320726375592003
0                         1.2499999999999996       0.12197953559913502
0.049999999999946615      1.2499999999999991       0.02695733879321786
0.09999999999989323       1.2499999999999987       -0.013541208193263094
0                         1.2999999999999994       0.10628863581021507
0.04999999999994692       1.299999999999999        0.01755143175036025
0.09999999999989384       1.2999999999999985       -0.018592328206889074
0.14999999999989252       1.149999999999998        0.0028679458683323476
0.19999999999989304       1.1499999999999975       -0.011444011273085765
0.1499999999998931        1.199999999999998        -0.019185775830585568
0.1999999999998936        1.1999999999999975       -0.026602064495993817
0.24999999999989236       1.0499999999999967       0.10412459989116322
0.2999999999998929        1.0499999999999963       0.10383450563782934
0.24999999999989297       1.0999999999999968       0.018006128634735726
0.2999999999998935        1.099999999999996        0.017694222407476385
0.34999999999989223       0.949999999999996        0.4570161775892625
0.3999999999998928        0.9499999999999953       0.48745652174762794
0.34999999999989284       0.9999999999999958       0.28396571296794726
0.39999999999989333       0.9999999999999953       0.328650954189616
0.44999999999989215       0.8499999999999946       0.6256510407600153
0.4999999999998927        0.8499999999999941       0.6304832082987029
0.4499999999998927        0.8999999999999947       0.5964720157466664
0.4999999999998932        0.8999999999999941       0.6109330262830722
0.5499999999998921        0.7499999999999936       0.6390138687075829
0.5999999999998927        0.7499999999999929       0.6386604081891945
0.5499999999998928        0.7999999999999935       0.6379943411424582
0.5999999999998933        0.7999999999999929       0.6382976002256786
0.649999999999892         0.6499999999999924       0.6374670281292948
0.6999999999998927        0.6499999999999918       0.6370148110546647
0.6499999999998926        0.6999999999999923       0.6378268738936745
0.6999999999998929        0.6999999999999917       0.6371723409256375
0.7499999999998921        0.5499999999999912       0.6361984747180797
0.7999999999998925        0.5499999999999905       0.6362210956782348
0.7499999999998926        0.5999999999999912       0.6364718712600906
0.7999999999998929        0.5999999999999905       0.636000953108191
0.849999999999892         0.44999999999998985      0.6360857251447842
0.8999999999998927        0.4499999999999893       0.6359489394577508
0.8499999999998926        0.4999999999999899       0.6361894315571679
0.8999999999998931        0.49999999999998934      0.6354264765088774
0.949999999999892         0.34999999999998865      0.6357427104981107
0.9999999999998926        0.34999999999998804      0.6342826145575204
0.9499999999998927        0.3999999999999887       0.635342001033598
0.9999999999998932        0.39999999999998803      0.6324603083499399
1.0499999999998921        0.24999999999998737      0.6339239271200727
1.0999999999998926        0.24999999999998676      0.632484263484908
1.0499999999998928        0.29999999999998744      0.6332185668627863
1.0999999999998933        0.29999999999998683      0.6298200642455781
1.149999999999892         0.14999999999998603      0.6322059398312482
1.1999999999998927        0.14999999999998545      0.632164606376642
1.1499999999998924        0.1999999999999861       0.6321365331930477
1.1999999999998932        0.19999999999998552      0.6312076582429453
1.2499999999998916        0                        0.6323980812120481
1.2999999999998924        0                        0.6327959301203768
1.2499999999998923        0.049999999999992384     0.6323551555680399
1.2999999999998928        0.04999999999999207      0.6328022257369577
1.249999999999893         0.09999999999998477      0.6324257731419988
1.2999999999998935        0.09999999999998414      0.632824417195522
0                         1.3499999999999994       0.1146943920177529
0.04999999999994723       1.349999999999999        0.02192999685123176
0.09999999999989446       1.3499999999999985       -0.016557798686514188
0                         1.3999999999999995       0.14835455759762373