% Model:              Baseline_Circular_BIG_1.mph
% Version:            COMSOL 6.0.0.405
% Date:               Jun 15 2024, 17:37
% Dimension:          2
% Nodes:              40401
% Expressions:        1
% Description:        Surface
% X                       Y                        Color
0                         0                        0.9311267860601182
0.04999999999993898       0                        0.1935919519251608
0.09999999999987796       0                        0.34482729489019914
0                         0.05                     0.4829734454737282
0.04999999999993929       0.0499999999999997       1.0740983182716368
0.09999999999987857       0.04999999999999939      0.4210937443951448
0                         0.1                      0.15211530781948812
0.0499999999999396        0.0999999999999994       1.1440161390313954
0.0999999999998792        0.09999999999999878      0.20047148398071038
0                         0.15000000000000002      0.6052887703952639
0.04999999999993991       0.14999999999999938      0.1530297260734072
0.09999999999987982       0.14999999999999877      0.28273074975147316
0                         0.2                      0.26841644635595624
0.04999999999994022       0.1999999999999994       1.4794109429330145
0.09999999999988043       0.19999999999999876      0.6737581416879028
0.14999999999987856       0                        0.7108236627520729
0.19999999999987916       0                        0.19222916857712619
0.14999999999987915       0.04999999999999909      0.22011052671705023
0.19999999999987972       0.04999999999999878      0.6611947838467973
0.14999999999987976       0.09999999999999817      1.4508575163818782
0.1999999999998803        0.09999999999999756      0.21250808964991225
0                         0.25                     1.6447264015518417
0.04999999999994051       0.24999999999999942      0.19607928778994407
0.09999999999988102       0.24999999999999878      0.20010661441748362
0                         0.3                      0.8852414809661745
0.04999999999994079       0.2999999999999994       0.17910602894288896
0.09999999999988159       0.2999999999999988       0.24026372066161686
0.1499999999998804        0.1499999999999982       0.6800750403534859
0.19999999999988097       0.14999999999999758      0.3680305320453985
0.14999999999988103       0.19999999999999818      0.41718085597602117
0.19999999999988163       0.19999999999999762      0.4338881995829822
0.24999999999987976       0                        0.9914873474503387
0.29999999999988036       0                        0.3352003137731019
0.24999999999988035       0.049999999999998476     0.23290400124777277
0.299999999999881         0.04999999999999818      0.15146233281998517
0.24999999999988093       0.09999999999999695      0.16253728474342652
0.2999999999998816        0.09999999999999636      0.15008790819737589
0                         0.35                     0.3088618224839008
0.049999999999941105      0.34999999999999937      0.963282807742681
0.09999999999988221       0.34999999999999876      0.25228045249142383
0                         0.3999999999999999       0.16864201396655956
0.04999999999994141       0.39999999999999936      0.163000237290566
0.09999999999988282       0.39999999999999875      0.17996450296502728
0.14999999999988162       0.2499999999999982       0.20730048648625343
0.19999999999988222       0.2499999999999976       0.2291492704126123
0.1499999999998822        0.2999999999999982       0.15019777894953149
0.19999999999988283       0.2999999999999976       0.5108256809952869
0.24999999999988157       0.14999999999999697      0.15010899154424792
0.2999999999998822        0.14999999999999633      0.25285211668861707
0.2499999999998822        0.19999999999999696      0.2256358252307854
0.2999999999998828        0.19999999999999632      0.16341838113576168
0.34999999999988096       0                        0.2481620976884725
0.39999999999988156       0                        2.013466899102215
0.3499999999998816        0.049999999999997866     0.8035822422024501
0.39999999999988217       0.04999999999999756      0.2734679154063394
0.3499999999998822        0.09999999999999573      1.2309353491897166
0.3999999999998828        0.09999999999999512      1.5674449546521312
0                         0.4499999999999999       0.26574701859952315
0.04999999999994173       0.4499999999999993       0.2847221162764121
0.09999999999988346       0.44999999999999873      0.15938970261408852
0                         0.4999999999999999       0.2136954169892244
0.04999999999994204       0.49999999999999933      1.0204971857156258
0.09999999999988408       0.4999999999999988       0.3592861072053899
0.14999999999988278       0.34999999999999815      0.6868656173800554
0.1999999999998834        0.34999999999999754      0.9201632305114703
0.1499999999998834        0.39999999999999813      0.19843021956961598
0.199999999999884         0.3999999999999975       0.3698572070370235
0.24999999999988282       0.24999999999999697      0.3839091032800409
0.29999999999988336       0.24999999999999634      0.1843775983254832
0.2499999999998834        0.299999999999997        0.4473718238905524
0.29999999999988397       0.2999999999999964       0.15008429188514258
0.3499999999998828        0.14999999999999575      0.3353482691589248
0.39999999999988345       0.14999999999999516      0.2772111519492705
0.3499999999998834        0.19999999999999576      0.21003089997454558
0.39999999999988406       0.1999999999999952       1.1865638823221574
0.44999999999988216       0                        0.15537094818747066
0.49999999999988276       0                        0.1727284139263329
0.4499999999998828        0.04999999999999725      0.2181100176050313
0.49999999999988337       0.049999999999996936     0.20194366604223052
0.4499999999998834        0.0999999999999945       0.16976623578797587
0.499999999999884         0.09999999999999387      0.5740327127573822
0                         0.5499999999999998       0.49811442255533533
0.049999999999942354      0.5499999999999994       1.034599285405635
0.09999999999988471       0.5499999999999987       0.15197164984256278
0                         0.5999999999999999       1.4567461449237138
0.04999999999994266       0.5999999999999993       0.4888011042532169
0.09999999999988532       0.5999999999999988       0.18461964201581146
0.149999999999884         0.4499999999999981       0.18759870337631035
0.1999999999998846        0.4499999999999975       0.5654959504720096
0.14999999999988464       0.49999999999999817      0.32933740768449193
0.19999999999988521       0.49999999999999756      0.17832963697617504
0.24999999999988398       0.349999999999997        0.6819765987390488
0.2999999999998846        0.3499999999999963       0.2161488185062642
0.24999999999988456       0.3999999999999969       0.16647147933977116
0.29999999999988514       0.39999999999999625      0.1640091740370607
0.34999999999988396       0.24999999999999578      0.4841840030390824
0.3999999999998846        0.24999999999999523      0.451538283761997
0.34999999999988457       0.2999999999999958       0.3088021393548062
0.39999999999988517       0.2999999999999952       0.15089619539613766
0.44999999999988394       0.14999999999999453      0.7437012004568505
0.49999999999988454       0.14999999999999392      0.1554607873661874
0.4499999999998846        0.19999999999999457      0.15132687040323067
0.4999999999998851        0.19999999999999393      0.5494131758647129
0.5499999999998834        0                        0.22661796896317224
0.599999999999884         0                        0.6026067690208049
0.5499999999998839        0.049999999999996644     0.7460585651306069
0.5999999999998846        0.04999999999999635      1.2520449081444456
0.5499999999998846        0.09999999999999329      0.15005451038783457
0.5999999999998853        0.0999999999999927       1.10099049743738
0                         0.6499999999999998       0.31539185490037613
0.04999999999994295       0.6499999999999992       0.24771434163619133
0.0999999999998859        0.6499999999999987       0.3741757704314002
0                         0.6999999999999997       0.23619835640440123
0.04999999999994325       0.6999999999999992       1.2349060271552308
0.0999999999998865        0.6999999999999986       0.2461414581465404
0.14999999999988525       0.5499999999999982       0.15000000580861314
0.19999999999988582       0.5499999999999975       0.5697154840418185
0.14999999999988586       0.5999999999999981       0.6755550246924146
0.1999999999998864        0.5999999999999974       0.24113383464854943
0.24999999999988518       0.4499999999999969       0.2395553224727901
0.29999999999988575       0.4499999999999963       0.2095386290002084
0.24999999999988579       0.4999999999999969       0.34187324122755464
0.29999999999988636       0.4999999999999963       0.4902407118956339
0.3499999999998852        0.3499999999999958       0.1534356534840725
0.3999999999998858        0.34999999999999526      0.34597017987849965
0.34999999999988574       0.3999999999999958       0.7946066603135745
0.39999999999988634       0.3999999999999953       3.5372276684092165
0.44999999999988516       0.24999999999999462      0.5973402004699776
0.4999999999998857        0.24999999999999395      0.16862336065897893
0.4499999999998857        0.2999999999999946       0.15000508953625072
0.4999999999998863        0.299999999999994        0.1503179445067864
0.5499999999998851        0.1499999999999933       0.16276454678999144
0.5999999999998857        0.14999999999999275      1.375385549282552
0.5499999999998857        0.19999999999999335      0.6884138766118353
0.5999999999998863        0.1999999999999928       0.2238944866506677
0.6499999999998846        0                        0.6022661932378993
0.6999999999998852        0                        0.919743492425845
0.6499999999998852        0.049999999999996034     0.15004635783593898
0.6999999999998858        0.049999999999995715     0.8502722738233683
0.6499999999998859        0.09999999999999207      0.6965968653646955
0.6999999999998865        0.09999999999999143      0.49437716996436487
0                         0.7499999999999998       0.37413461870124504
0.04999999999994355       0.7499999999999991       1.1234599293404925
0.0999999999998871        0.7499999999999987       0.3628366435445389
0                         0.7999999999999997       0.5561193682885338
0.04999999999994385       0.7999999999999992       0.21187699588453318
0.0999999999998877        0.7999999999999986       0.23609314762317146
0.14999999999988647       0.649999999999998        0.1562857810158089
0.19999999999988702       0.6499999999999975       0.26100780672249946
0.14999999999988706       0.699999999999998        1.1207811337233993
0.19999999999988763       0.6999999999999974       0.2958175493579225
0.24999999999988637       0.5499999999999969       0.5210849290677979
0.2999999999998869        0.5499999999999963       0.3459205666434539
0.24999999999988698       0.5999999999999969       0.2308948009323722
0.2999999999998875        0.5999999999999963       0.20907610030555304
0.34999999999988635       0.44999999999999574      0.5879119345468705
0.39999999999988695       0.44999999999999524      0.15069262375601464
0.34999999999988696       0.4999999999999957       0.5342658124246779
0.39999999999988756       0.49999999999999517      0.2555053442068553
0.4499999999998863        0.3499999999999946       0.5297070180681219
0.49999999999988687       0.349999999999994        0.43463861563283857
0.44999999999988693       0.39999999999999464      0.2516136812366169
0.4999999999998875        0.39999999999999397      0.5709910443342565
0.5499999999998864        0.24999999999999337      0.1623773419841367
0.5999999999998868        0.2499999999999928       0.19749976729040936
0.5499999999998869        0.2999999999999934       1.6853457750147054
0.5999999999998875        0.29999999999999283      0.5265028598774557
0.6499999999998863        0.1499999999999921       0.7351135679307518
0.6999999999998869        0.14999999999999147      0.15205235160634067
0.6499999999998869        0.19999999999999216      0.15765597250678248
0.6999999999998875        0.19999999999999152      0.18075300732737637
0.7499999999998858        0                        0.884492714319286
0.7999999999998864        0                        0.5105129503602563
0.7499999999998864        0.049999999999995416     1.1830602434610125
0.7999999999998869        0.04999999999999512      2.611259144173247
0.749999999999887         0.09999999999999083      1.3362542527693375
0.7999999999998875        0.09999999999999024      0.2170242705324555
0                         0.8499999999999996       0.43967163386325736
0.04999999999994416       0.8499999999999992       0.17230963587392528
0.09999999999988832       0.8499999999999985       0.15354809702231215
0                         0.8999999999999997       0.19801912788559373
0.04999999999994447       0.8999999999999991       0.5631227051962253
0.09999999999988894       0.8999999999999986       0.34341530359521444
0.14999999999988767       0.749999999999998        0.26052079557826596
0.19999999999988824       0.7499999999999974       0.18888380583436784
0.14999999999988828       0.799999999999998        0.3617717171754486
0.19999999999988885       0.7999999999999975       0.29792101717135266
0.2499999999998876        0.6499999999999968       0.31926142473340813
0.29999999999988813       0.6499999999999964       0.15060208904138322
0.2499999999998882        0.6999999999999968       0.7152304129748877
0.29999999999988874       0.6999999999999963       0.22867012809326792
0.3499999999998875        0.5499999999999957       0.7088517080394373
0.3999999999998881        0.5499999999999952       0.2139584283942016
0.3499999999998881        0.5999999999999958       0.18022300456020468
0.3999999999998887        0.5999999999999952       0.2631418073621707
0.4499999999998875        0.4499999999999946       0.15051411709514106
0.4999999999998881        0.44999999999999407      0.20241088832475865
0.4499999999998881        0.49999999999999467      0.5972508883130041
0.49999999999988864       0.4999999999999941       0.6624226623240802
0.5499999999998875        0.3499999999999934       0.7404320835142907
0.5999999999998881        0.3499999999999929       0.15059226057708222
0.549999999999888         0.39999999999999347      0.2911601036601419
0.5999999999998886        0.3999999999999929       0.15629445047422597
0.6499999999998874        0.24999999999999217      0.2299014294483816
0.699999999999888         0.24999999999999156      0.15129007040362003
0.649999999999888         0.2999999999999922       0.15200386077327704
0.6999999999998886        0.2999999999999916       0.8343445446699426
0.7499999999998874        0.14999999999999086      0.25123379757898134
0.799999999999888         0.1499999999999903       0.3242494431549434
0.7499999999998881        0.19999999999999094      0.16312107445981372
0.7999999999998886        0.19999999999999035      0.919939801852049
0.849999999999887         0                        0.2017893104697429
0.8999999999998876        0                        0.1554036001786329
0.8499999999998875        0.04999999999999482      0.8452055459814575
0.8999999999998881        0.04999999999999452      0.17575123216271282
0.8499999999998881        0.09999999999998964      1.3863247317812002
0.8999999999998887        0.09999999999998904      1.9119169001093683
0                         0.9499999999999997       0.4340013774766517
0.04999999999994478       0.9499999999999992       3.2043291945001373
0.09999999999988957       0.9499999999999986       0.8777790684842183
0                         0.9999999999999997       0.5038413943537778
0.04999999999994509       0.9999999999999991       0.7366457229466494
0.09999999999989018       0.9999999999999987       0.15235341109262976
0.1499999999998889        0.8499999999999981       0.32770381665996784
0.19999999999988943       0.8499999999999974       0.23668473286668257
0.1499999999998895        0.899999999999998        0.17270486188497122
0.19999999999989004       0.8999999999999975       0.21658983181168917
0.24999999999988876       0.7499999999999969       1.2451025219465337
0.2999999999998893        0.7499999999999962       0.24474365972069406
0.24999999999988937       0.7999999999999969       0.15770656281854142
0.29999999999988985       0.7999999999999963       0.6079230016896228
0.34999999999988873       0.6499999999999958       0.15135437243490996
0.39999999999988933       0.6499999999999952       0.15011296535023178
0.3499999999998893        0.6999999999999957       0.19329462247963483
0.3999999999998899        0.6999999999999952       0.15333036269782463
0.4499999999998887        0.5499999999999946       0.2035484457152496
0.49999999999988926       0.549999999999994        1.1362979511953226
0.44999999999988927       0.5999999999999945       0.18164385669129518
0.49999999999988987       0.599999999999994        0.23142872429758024
0.5499999999998886        0.4499999999999935       0.3146878410330397
0.5999999999998892        0.44999999999999285      0.4393872224761164
0.5499999999998892        0.49999999999999345      0.2573785932095959
0.5999999999998897        0.4999999999999928       0.2700968434635024
0.6499999999998886        0.34999999999999226      1.2911493671763787
0.6999999999998892        0.34999999999999165      0.41720542277097517
0.6499999999998891        0.3999999999999923       0.32422085743829143
0.6999999999998897        0.3999999999999917       0.17999664028335882
0.7499999999998886        0.249999999999991        0.3702451986198938
0.7999999999998892        0.24999999999999042      0.17644312211470253
0.7499999999998892        0.29999999999999105      0.4563639015991934
0.7999999999998898        0.2999999999999905       0.44620617339870305
0.8499999999998886        0.14999999999998967      0.37507110850579917
0.8999999999998892        0.14999999999998906      0.32264726367339314
0.8499999999998892        0.1999999999999897       0.2644337884274497
0.8999999999998898        0.19999999999998908      0.20971087109671785
0.9499999999998882        0                        0.15003148924140347
0.9999999999998888        0                        0.4058861478246185
0.9499999999998887        0.0499999999999942       1.2678877446441024
0.9999999999998893        0.04999999999999388      0.23863110204169147
0.9499999999998893        0.0999999999999884       0.47255918530222574
0.9999999999998899        0.09999999999998777      0.6540783967362253
0                         1.0499999999999996       0.24209093184112646
0.049999999999945394      1.049999999999999        0.1850222740916087
0.09999999999989079       1.0499999999999985       0.2149559697637304
0                         1.0999999999999996       0.4442051678637884
0.049999999999945706      1.099999999999999        1.2742111701300043
0.09999999999989141       1.0999999999999983       0.18925024254885492
0.1499999999998901        0.949999999999998        0.6948674174322674
0.19999999999989065       0.9499999999999975       0.8481824356495256
0.14999999999989072       0.9999999999999981       0.15089259430251412
0.19999999999989124       0.9999999999999976       0.151809500189336
0.24999999999988998       0.8499999999999969       0.1570836854631828
0.29999999999989047       0.8499999999999963       0.1618477163471223
0.2499999999998906        0.899999999999997        2.8495930660769884
0.29999999999989113       0.8999999999999965       0.1523820221916667
0.3499999999998899        0.7499999999999958       0.26683579598901863
0.3999999999998905        0.7499999999999951       0.15728560902334288
0.3499999999998905        0.7999999999999957       0.17165702232737912
0.3999999999998911        0.7999999999999952       0.20183818018272467
0.4499999999998899        0.6499999999999946       0.15110776490227937
0.4999999999998904        0.649999999999994        0.1575209346597383
0.4499999999998905        0.6999999999999946       0.3250474657914655
0.49999999999989103       0.6999999999999941       0.2889405156893786
0.5499999999998898        0.5499999999999935       1.1673715708736536
0.5999999999998903        0.5499999999999928       0.2880187780676057
0.5499999999998904        0.5999999999999934       0.1600698208273587
0.5999999999998908        0.5999999999999929       0.449292212854434
0.6499999999998898        0.4499999999999923       1.0789036354921238
0.6999999999998905        0.44999999999999174      0.15087201901930494
0.6499999999998904        0.4999999999999923       1.27528423641734
0.6999999999998912        0.4999999999999918       0.1705157571175434
0.7499999999998898        0.34999999999999104      0.15270245327529308
0.7999999999998904        0.34999999999999043      0.19005428481957864
0.7499999999998903        0.39999999999999103      0.17855415722447823
0.7999999999998909        0.39999999999999036      0.15792788946208097
0.8499999999998897        0.24999999999998979      0.3190533498773165
0.8999999999998903        0.24999999999998915      0.6520372528500495
0.8499999999998904        0.29999999999998983      0.6973476337409408
0.8999999999998909        0.2999999999999892       0.30026026524560073
0.9499999999998898        0.14999999999998845      0.7376689671095275
0.9999999999998904        0.14999999999998784      0.191601154840356
0.9499999999998904        0.1999999999999885       0.5968491037905435
0.999999999999891         0.1999999999999879       0.32063072798140335
1.0499999999998892        0                        0.17039016787132122
1.09999999999989          0                        0.1548210265024659
1.04999999999989          0.049999999999993584     0.33277558305016214
1.0999999999998904        0.049999999999993286     0.1500508987308309
1.0499999999998906        0.09999999999998717      0.8483591305232977
1.099999999999891         0.09999999999998657      0.21749306584166625
0                         1.1499999999999995       0.16074764166196526
0.049999999999946004      1.149999999999999        0.25372670781942186
0.09999999999989201       1.1499999999999986       0.18515670987519955
0                         1.1999999999999995       0.283033972582879
0.0499999999999463        1.199999999999999        0.24529723681904844
0.0999999999998926        1.1999999999999986       1.2812752995533239
0.14999999999989133       1.049999999999998        0.15806786486207852
0.19999999999989185       1.0499999999999976       0.40312969073977534
0.14999999999989194       1.0999999999999979       0.749170272912338
0.19999999999989246       1.0999999999999974       1.5322349994222009
0.2499999999998912        0.9499999999999971       1.616593672411522
0.2999999999998917        0.9499999999999964       0.3539724319675411
0.24999999999989175       0.9999999999999969       0.15529365814368817
0.2999999999998923        0.9999999999999962       0.3033417473756138
0.34999999999989106       0.8499999999999959       1.4350510315658278
0.39999999999989166       0.8499999999999952       0.1580508206529523
0.3499999999998916        0.8999999999999959       0.5023896663889621
0.39999999999989216       0.8999999999999952       0.5151142929317702
0.44999999999989104       0.7499999999999946       0.17080890821036604
0.49999999999989164       0.749999999999994        0.28166950268427937
0.44999999999989165       0.7999999999999946       0.3720757522035282
0.4999999999998922        0.799999999999994        0.15374837949935224
0.549999999999891         0.6499999999999935       1.3281894341505152
0.5999999999998915        0.6499999999999928       0.15284558848253196
0.5499999999998916        0.6999999999999935       0.33719020839397496
0.5999999999998922        0.6999999999999929       0.150334013940821
0.649999999999891         0.5499999999999923       0.29011344732760225
0.6999999999998918        0.5499999999999918       0.4017931055980498
0.6499999999998916        0.5999999999999923       0.15019490118128834
0.6999999999998924        0.5999999999999919       1.1561531412182868
0.7499999999998909        0.4499999999999911       1.2738848595677903
0.7999999999998915        0.4499999999999904       0.39130777655247617
0.7499999999998916        0.4999999999999911       0.4682235470961378
0.799999999999892         0.49999999999999045      0.1629505354371252
0.8499999999998911        0.3499999999999898       0.2935294806205504
0.8999999999998916        0.34999999999998926      0.8569688381640576
0.8499999999998915        0.3999999999999898       1.4395981952376118
0.8999999999998922        0.3999999999999893       0.4692044331947459
0.9499999999998909        0.24999999999998856      0.15000042232909477
0.9999999999998915        0.24999999999998798      0.4304181220328319
0.9499999999998915        0.2999999999999886       0.5170462436123725
0.9999999999998921        0.29999999999998805      0.9300813320304127
1.049999999999891         0.14999999999998725      0.18373877353333415
1.0999999999998915        0.14999999999998664      0.4693224798377571
1.0499999999998915        0.1999999999999873       0.5265036540276913
1.099999999999892         0.1999999999999867       0.38734025029370467
1.1499999999998907        0                        0.606363070922982
1.1999999999998912        0                        1.7194827407340856
1.149999999999891         0.04999999999999299      2.812011712065491
1.1999999999998918        0.04999999999999269      0.1538536267844657
1.1499999999998916        0.09999999999998598      0.5450577475571724
1.1999999999998923        0.09999999999998538      0.3061537420350988
0                         1.2499999999999996       0.19559136952789147
0.049999999999946615      1.2499999999999991       0.18272412280234201
0.09999999999989323       1.2499999999999987       0.15422824633516113
0                         1.2999999999999994       0.270057795225093
0.04999999999994692       1.299999999999999        0.2670301198876185
0.09999999999989384       1.2999999999999985       0.3595539155350115
0.14999999999989252       1.149999999999998        0.25720543195583107
0.19999999999989304       1.1499999999999975       0.47252915465128853
0.1499999999998931        1.199999999999998        1.0454045094897357
0.1999999999998936        1.1999999999999975       0.2020101552181911
0.24999999999989236       1.0499999999999967       0.4346947338493635
0.2999999999998929        1.0499999999999963       0.15630630153355984
0.24999999999989297       1.0999999999999968       1.1939212270969357
0.2999999999998935        1.099999999999996        0.9177385383179599
0.34999999999989223       0.949999999999996        0.690177450002341
0.3999999999998928        0.9499999999999953       0.9635680585853301
0.34999999999989284       0.9999999999999958       0.33977187746870896
0.39999999999989333       0.9999999999999953       0.15003746689964673
0.44999999999989215       0.8499999999999946       0.15092437766460667
0.4999999999998927        0.8499999999999941       1.2974841300643754
0.4499999999998927        0.8999999999999947       0.27714382791165465
0.4999999999998932        0.8999999999999941       0.16345970156755932
0.5499999999998921        0.7499999999999936       2.5896038440009805
0.5999999999998927        0.7499999999999929       0.16309675247119357
0.5499999999998928        0.7999999999999935       0.3200120195496742
0.5999999999998933        0.7999999999999929       0.26939579273423087
0.649999999999892         0.6499999999999924       0.1660464803735602
0.6999999999998927        0.6499999999999918       0.3245052453184534
0.6499999999998926        0.6999999999999923       0.15603920530863685
0.6999999999998929        0.6999999999999917       0.202476141388252
0.7499999999998921        0.5499999999999912       0.4368245112381237
0.7999999999998925        0.5499999999999905       0.16698446347136234
0.7499999999998926        0.5999999999999912       0.1504795883578752
0.7999999999998929        0.5999999999999905       0.2115398027757494
0.849999999999892         0.44999999999998985      0.33275505872996536
0.8999999999998927        0.4499999999999893       0.17037366200166948
0.8499999999998926        0.4999999999999899       0.15101443811324433
0.8999999999998931        0.49999999999998934      1.044703054569462
0.949999999999892         0.34999999999998865      0.22396894862856376
0.9999999999998926        0.34999999999998804      0.3685291040867693
0.9499999999998927        0.3999999999999887       0.15813097862015277
0.9999999999998932        0.39999999999998803      0.5430144995985315
1.0499999999998921        0.24999999999998737      0.21053332850496326
1.0999999999998926        0.24999999999998676      0.561892969221168
1.0499999999998928        0.29999999999998744      0.6777722763416026
1.0999999999998933        0.29999999999998683      0.36669574303955255
1.149999999999892         0.14999999999998603      0.3189064143816558
1.1999999999998927        0.14999999999998545      0.2707078445163399
1.1499999999998924        0.1999999999999861       0.15104869624765727
1.1999999999998932        0.19999999999998552      1.2005559726102442
1.2499999999998916        0                        0.4669224794798368
1.2999999999998924        0                        0.19703047896296538
1.2499999999998923        0.049999999999992384     0.1562921609790354
1.2999999999998928        0.04999999999999207      0.16476724288359607
1.249999999999893         0.09999999999998477      0.8783276203594973
1.2999999999998935        0.09999999999998414      0.2554387174014541
0                         1.3499999999999994       0.23738206873910248
0.04999999999994723       1.349999999999999        0.15080778675897621
0.09999999999989446       1.3499999999999985       0.29295896387321074
0                         1.3999999999999995       0.2329515586728969
0.049999999999947545      1.399999999999999        0.18843519646183213