% Model:              Baseline_Circular_BIG_1.mph
% Version:            COMSOL 6.0.0.405
% Date:               Jun 15 2024, 17:36
% Dimension:          2
% Nodes:              40401
% Expressions:        1
% Description:        Surface
% X                       Y                        Dependent variable Phiw
0                         0                        0.011459201054676179
0.04999999999993898       0                        -0.020158099687488527
0.09999999999987796       0                        -0.030668105011010544
0                         0.05                     0.04092297491979177
0.04999999999993929       0.0499999999999997       -4.4082216443143575E-4
0.09999999999987857       0.04999999999999939      -0.015214673295472634
0                         0.1                      0.10992004753824056
0.0499999999999396        0.0999999999999994       0.05147136535146028
0.0999999999998792        0.09999999999999878      0.027944506794618344
0                         0.15000000000000002      0.23482584706919618
0.04999999999993991       0.14999999999999938      0.16190954378986158
0.09999999999987982       0.14999999999999877      0.127744080583782
0                         0.2                      0.3906454319176442
0.04999999999994022       0.1999999999999994       0.32669343202271295
0.09999999999988043       0.19999999999999876      0.29207848882556126
0.14999999999987856       0                        -0.03153023455448116
0.19999999999987916       0                        -0.02301477311320593
0.14999999999987915       0.04999999999999909      -0.015835374126526677
0.19999999999987972       0.04999999999999878      -0.0022967168869346475
0.14999999999987976       0.09999999999999817      0.02757728983596995
0.1999999999998803        0.09999999999999756      0.05048741066644163
0                         0.25                     0.5155847906309968
0.04999999999994051       0.24999999999999942      0.48010474665086245
0.09999999999988102       0.24999999999999878      0.4591983222773114
0                         0.3                      0.5842725382499013
0.04999999999994079       0.2999999999999994       0.5706203093236235
0.09999999999988159       0.2999999999999988       0.5624881933468571
0.1499999999998804        0.1499999999999982       0.12791924075754899
0.19999999999988097       0.14999999999999758      0.16216124032666632
0.14999999999988103       0.19999999999999818      0.2928665324799834
0.19999999999988163       0.19999999999999762      0.3283377720063947
0.24999999999987976       0                        0.001988584559891225
0.29999999999988036       0                        0.06423229862013509
0.24999999999988035       0.049999999999998476     0.03435743871027506
0.299999999999881         0.04999999999999818      0.11461136251163101
0.24999999999988093       0.09999999999999695      0.10635429521284229
0.2999999999998816        0.09999999999999636      0.2083756925545889
0                         0.35                     0.6133651363753558
0.049999999999941105      0.34999999999999937      0.6091264478506229
0.09999999999988221       0.34999999999999876      0.6067524769296967
0                         0.3999999999999999       0.6239469330294715
0.04999999999994141       0.39999999999999936      0.6230195408982212
0.09999999999988282       0.39999999999999875      0.6226757603984427
0.14999999999988162       0.2499999999999982       0.4600397107692926
0.19999999999988222       0.2499999999999976       0.4821461721795919
0.1499999999998822        0.2999999999999982       0.5631220835252297
0.19999999999988283       0.2999999999999976       0.5723390777330823
0.24999999999988157       0.14999999999999697      0.2345862190383537
0.2999999999998822        0.14999999999999633      0.3403669096915052
0.2499999999998822        0.19999999999999696      0.3927830322737797
0.2999999999998828        0.19999999999999632      0.46984212374936946
0.34999999999988096       0                        0.19030039594142298
0.39999999999988156       0                        0.3625362215093112
0.3499999999998816        0.049999999999997866     0.2533437460453389
0.39999999999988217       0.04999999999999756      0.41436615487127854
0.3499999999998822        0.09999999999999573      0.3486224044903162
0.3999999999998828        0.09999999999999512      0.4801191283958667
0                         0.4499999999999999       0.6276125961884419
0.04999999999994173       0.4499999999999993       0.6278009474217344
0.09999999999988346       0.44999999999999873      0.6281055166261503
0                         0.4999999999999999       0.6285596963811991
0.04999999999994204       0.49999999999999933      0.6289992140595775
0.09999999999988408       0.4999999999999988       0.6293565266043355
0.14999999999988278       0.34999999999999815      0.6072809834377944
0.1999999999998834        0.34999999999999754      0.6106073283805611
0.1499999999998834        0.39999999999999813      0.6231595852928227
0.199999999999884         0.3999999999999975       0.6243784748775205
0.24999999999988282       0.24999999999999697      0.5183727372716262
0.29999999999988336       0.24999999999999634      0.5572340900913489
0.2499999999998834        0.299999999999997        0.5867779663861746
0.29999999999988397       0.2999999999999964       0.6018301110047071
0.3499999999998828        0.14999999999999575      0.45320753699464633
0.39999999999988345       0.14999999999999516      0.5405300128279497
0.3499999999998834        0.19999999999999576      0.5375580647222581
0.39999999999988406       0.1999999999999952       0.5839982810921078
0.44999999999988216       0                        0.5059004810398217
0.49999999999988276       0                        0.5829390200272214
0.4499999999998828        0.04999999999999725      0.5327528413372622
0.49999999999988337       0.049999999999996936     0.5930869898638699
0.4499999999998834        0.0999999999999945       0.5640589944548312
0.499999999999884         0.09999999999999387      0.6047391315805819
0                         0.5499999999999998       0.6285174758482093
0.049999999999942354      0.5499999999999994       0.6287805993539194
0.09999999999988471       0.5499999999999987       0.6287327014396171
0                         0.5999999999999999       0.6277615764715407
0.04999999999994266       0.5999999999999993       0.6271959941805466
0.09999999999988532       0.5999999999999988       0.6256863812866195
0.149999999999884         0.4499999999999981       0.6285211973101311
0.1999999999998846        0.4499999999999975       0.6289663803197539
0.14999999999988464       0.49999999999999817      0.6295525309410748
0.19999999999988521       0.49999999999999756      0.6295226783239973
0.24999999999988398       0.349999999999997        0.6155844725562664
0.2999999999998846        0.3499999999999963       0.620676837195986
0.24999999999988456       0.3999999999999969       0.6259787558977697
0.29999999999988514       0.39999999999999625      0.6275035956820507
0.34999999999988396       0.24999999999999578      0.5887133127442318
0.3999999999998846        0.24999999999999523      0.6093635564947991
0.34999999999988457       0.2999999999999958       0.6139362678896402
0.39999999999988517       0.2999999999999952       0.6218625393844153
0.44999999999988394       0.14999999999999453      0.59102934224516
0.49999999999988454       0.14999999999999392      0.6148318906498003
0.4499999999998846        0.19999999999999457      0.6098017408145351
0.4999999999998851        0.19999999999999393      0.6219501886592111
0.5499999999998834        0                        0.6138537674808555
0.599999999999884         0                        0.62450139431862
0.5499999999998839        0.049999999999996644     0.6173395931746261
0.5999999999998846        0.04999999999999635      0.6257553547189866
0.5499999999998846        0.09999999999999329      0.6212759764643633
0.5999999999998853        0.0999999999999927       0.6270806141489276
0                         0.6499999999999998       0.6259350475281077
0.04999999999994295       0.6499999999999992       0.6231832879973359
0.0999999999998859        0.6499999999999987       0.617758500234524
0                         0.6999999999999997       0.6219549252595673
0.04999999999994325       0.6999999999999992       0.6140308816218633
0.0999999999998865        0.6999999999999986       0.5990184496473253
0.14999999999988525       0.5499999999999982       0.6282402441992732
0.19999999999988582       0.5499999999999975       0.6272846351066785
0.14999999999988586       0.5999999999999981       0.6229644327550748
0.1999999999998864        0.5999999999999974       0.619144441707338
0.24999999999988518       0.4499999999999969       0.6293486255226742
0.29999999999988575       0.4499999999999963       0.6295886813802292
0.24999999999988579       0.4999999999999969       0.6293024541068487
0.29999999999988636       0.4999999999999963       0.6290028976504268
0.3499999999998852        0.3499999999999958       0.6247045798566442
0.3999999999998858        0.34999999999999526      0.6272410750051843
0.34999999999988574       0.3999999999999958       0.6286041843073626
0.39999999999988634       0.3999999999999953       0.6291698001694923
0.44999999999988516       0.24999999999999462      0.6207233539061601
0.4999999999998857        0.24999999999999395      0.6260934321351519
0.4499999999998857        0.2999999999999946       0.6261509309435612
0.4999999999998863        0.299999999999994        0.6280845875025406
0.5499999999998851        0.1499999999999933       0.6246656392289758
0.5999999999998857        0.14999999999999275      0.6281613662961666
0.5499999999998857        0.19999999999999335      0.6270283162549957
0.5999999999998863        0.1999999999999928       0.6288482260086148
0.6499999999998846        0                        0.6279875614449236
0.6999999999998852        0                        0.6287396535139006
0.6499999999998852        0.049999999999996034     0.6284949294358669
0.6999999999998858        0.049999999999995715     0.6289368609193092
0.6499999999998859        0.09999999999999207      0.628928375498672
0.6999999999998865        0.09999999999999143      0.6290034438498513
0                         0.7499999999999998       0.6141161434339044
0.04999999999994355       0.7499999999999991       0.5954737921209672
0.0999999999998871        0.7499999999999987       0.5603223856017334
0                         0.7999999999999997       0.6004829958813012
0.04999999999994385       0.7999999999999992       0.5626777841777238
0.0999999999998877        0.7999999999999986       0.4934230325195805
0.14999999999988647       0.649999999999998        0.6089514986894377
0.19999999999988702       0.6499999999999975       0.5971167771564089
0.14999999999988706       0.699999999999998        0.575083967370822
0.19999999999988763       0.6999999999999974       0.5436198496009113
0.24999999999988637       0.5499999999999969       0.6260908186042407
0.2999999999998869        0.5499999999999963       0.6250592067087644
0.24999999999988698       0.5999999999999969       0.6149702489570122
0.2999999999998875        0.5999999999999963       0.6116922626360645
0.34999999999988635       0.44999999999999574      0.6296643375987089
0.39999999999988695       0.44999999999999524      0.6296040560942441
0.34999999999988696       0.4999999999999957       0.6287603972587061
0.39999999999988756       0.49999999999999517      0.6286707525276984
0.4499999999998863        0.3499999999999946       0.6284706897855036
0.49999999999988687       0.349999999999994        0.6288670042514628
0.44999999999988693       0.39999999999999464      0.6292801002793688
0.4999999999998875        0.39999999999999397      0.6291164334688512
0.5499999999998864        0.24999999999999337      0.6283201156497021
0.5999999999998868        0.2499999999999928       0.6291141462644239
0.5499999999998869        0.2999999999999934       0.6288135705663958
0.5999999999998875        0.29999999999999283      0.6290689583828715
0.6499999999998863        0.1499999999999921       0.6292192296664703
0.6999999999998869        0.14999999999999147      0.6289609895457874
0.6499999999998869        0.19999999999999216      0.6293466313653971
0.6999999999998875        0.19999999999999152      0.6288557885293479
0.7499999999998858        0                        0.6284505860031875
0.7999999999998864        0                        0.6268016085287818
0.7499999999998864        0.049999999999995416     0.6281646337502692
0.7999999999998869        0.04999999999999512      0.6250780092216539
0.749999999999887         0.09999999999999083      0.6276401784057668
0.7999999999998875        0.09999999999999024      0.6226790079411748
0                         0.8499999999999996       0.5802524077731642
0.04999999999994416       0.8499999999999992       0.5143281974903139
0.09999999999988832       0.8499999999999985       0.4019360528674006
0                         0.8999999999999997       0.5557165740422163
0.04999999999994447       0.8999999999999991       0.4580730173506374
0.09999999999988894       0.8999999999999986       0.3088056346855001
0.14999999999988767       0.749999999999998        0.5053785028006126
0.19999999999988824       0.7499999999999974       0.4375117720389977
0.14999999999988828       0.799999999999998        0.3937722737265481
0.19999999999988885       0.7999999999999975       0.28812898095700773
0.2499999999998876        0.6499999999999968       0.5843613208068645
0.29999999999988813       0.6499999999999964       0.5744417294750691
0.2499999999998882        0.6999999999999968       0.5105555700603948
0.29999999999988874       0.6999999999999963       0.4855647941016935
0.3499999999998875        0.5499999999999957       0.6245778748262519
0.3999999999998881        0.5499999999999952       0.6248201426155543
0.3499999999998881        0.5999999999999958       0.610500178662936
0.3999999999998887        0.5999999999999952       0.611815228464861
0.4499999999998875        0.4499999999999946       0.6294207001228221
0.4999999999998881        0.44999999999999407      0.6291679576890568
0.4499999999998881        0.49999999999999467      0.6286862918313191
0.49999999999988864       0.4999999999999941       0.6287399294749588
0.5499999999998875        0.3499999999999934       0.6289144873553191
0.5999999999998881        0.3499999999999929       0.6289277638594647
0.549999999999888         0.39999999999999347      0.6289324854698229
0.5999999999998886        0.3999999999999929       0.6288752773762929
0.6499999999998874        0.24999999999999217      0.6293035556491164
0.699999999999888         0.24999999999999156      0.6287318730368797
0.649999999999888         0.2999999999999922       0.6291337641400219
0.6999999999998886        0.2999999999999916       0.6286294926418952
0.7499999999998874        0.14999999999999086      0.627011958370928
0.799999999999888         0.1499999999999903       0.6200732140171968
0.7499999999998881        0.19999999999999094      0.6264750260653013
0.7999999999998886        0.19999999999999035      0.6179997234880731
0.849999999999887         0                        0.6221065427228187
0.8999999999998876        0                        0.6102050613929129
0.8499999999998875        0.04999999999999482      0.616411601365722
0.8999999999998881        0.04999999999999452      0.5940957733542741
0.8499999999998881        0.09999999999998964      0.6086741390214776
0.8999999999998887        0.09999999999998904      0.5722261567310415
0                         0.9499999999999997       0.5326193402544673
0.04999999999994478       0.9499999999999992       0.4084890311944304
0.09999999999988957       0.9499999999999986       0.23899640645725947
0                         0.9999999999999997       0.518387182762082
0.04999999999994509       0.9999999999999991       0.37969127155575594
0.09999999999989018       0.9999999999999987       0.20307690201594097
0.1499999999998889        0.8499999999999981       0.26465029698620185
0.19999999999988943       0.8499999999999974       0.14946043765443973
0.1499999999998895        0.899999999999998        0.15980685300234465
0.19999999999989004       0.8999999999999975       0.061178557518134426
0.24999999999988876       0.7499999999999969       0.3729410183984853
0.2999999999998893        0.7499999999999962       0.32882757764867576
0.24999999999988937       0.7999999999999969       0.20552518083507487
0.29999999999988985       0.7999999999999963       0.15767889482586392
0.34999999999988873       0.6499999999999958       0.5709914965437403
0.39999999999988933       0.6499999999999952       0.5752697585620759
0.3499999999998893        0.6999999999999957       0.4770172892134689
0.3999999999998899        0.6999999999999952       0.4875465454704502
0.4499999999998887        0.5499999999999946       0.6256275846175012
0.49999999999988926       0.549999999999994        0.6266616772420519
0.44999999999988927       0.5999999999999945       0.6150943518190526
0.49999999999988987       0.599999999999994        0.6191914948010938
0.5499999999998886        0.4499999999999935       0.6289964758478357
0.5999999999998892        0.44999999999999285      0.628975629120546
0.5499999999998892        0.49999999999999345      0.6288519556261225
0.5999999999998897        0.4999999999999928       0.6290393604711781
0.6499999999998886        0.34999999999999226      0.6289561433925374
0.6999999999998892        0.34999999999999165      0.6286021616897526
0.6499999999998891        0.3999999999999923       0.6289064625826113
0.6999999999998897        0.3999999999999917       0.6287066053187642
0.7499999999998886        0.249999999999991        0.6262174929223541
0.7999999999998892        0.24999999999999042      0.6171741314137407
0.7499999999998892        0.29999999999999105      0.6263319418374701
0.7999999999998898        0.2999999999999905       0.6179031238778107
0.8499999999998886        0.14999999999998967      0.6002395384224166
0.8999999999998892        0.14999999999998906      0.5484604373393749
0.8499999999998892        0.1999999999999897       0.5934872551076162
0.8999999999998898        0.19999999999998908      0.5296136677797647
0.9499999999998882        0                        0.5842531433378123
0.9999999999998888        0                        0.5361830296898676
0.9499999999998887        0.0499999999999942       0.5449115098751172
0.9999999999998893        0.04999999999999388      0.45698029367676135
0.9499999999998893        0.0999999999999884       0.49254545505943137
0.9999999999998899        0.09999999999998777      0.36168340663952897
0                         1.0499999999999996       0.5181003815266474
0.049999999999945394      1.049999999999999        0.3787153322078748
0.09999999999989079       1.0499999999999985       0.2014366642987541
0                         1.0999999999999996       0.5315569685321819
0.049999999999945706      1.099999999999999        0.40491920654077157
0.09999999999989141       1.0999999999999983       0.23301089266423491
0.1499999999998901        0.949999999999998        0.09701228138618793
0.19999999999989065       0.9499999999999975       0.01815635798258346
0.14999999999989072       0.9999999999999981       0.06916355960433261
0.19999999999989124       0.9999999999999976       0.0015577876234987155
0.24999999999988998       0.8499999999999969       0.07894789164175182
0.29999999999989047       0.8499999999999963       0.044764440407101945
0.2499999999998906        0.899999999999997        0.012446747089516748
0.29999999999989113       0.8999999999999965       -0.007731852939254717
0.3499999999998899        0.7499999999999958       0.31457585691148077
0.3999999999998905        0.7499999999999951       0.33182269460092884
0.3499999999998905        0.7999999999999957       0.14339804350527072
0.3999999999998911        0.7999999999999952       0.16039695622221234
0.4499999999998899        0.6499999999999946       0.5855644842599952
0.4999999999998904        0.649999999999994        0.598265513836685
0.4499999999998905        0.6999999999999946       0.5135473967319993
0.49999999999989103       0.6999999999999941       0.546519042796921
0.5499999999998898        0.5499999999999935       0.6276757851858965
0.5999999999998903        0.5499999999999928       0.6285344675425628
0.5499999999998904        0.5999999999999934       0.6230543577701937
0.5999999999998908        0.5999999999999929       0.626066146390706
0.6499999999998898        0.4499999999999923       0.6290397099648398
0.6999999999998905        0.44999999999999174      0.6289634965343412
0.6499999999998904        0.4999999999999923       0.6292266909907035
0.6999999999998912        0.4999999999999918       0.6292705588331307
0.7499999999998898        0.34999999999999104      0.6267872884736579
0.7999999999998904        0.34999999999999043      0.6199336437922236
0.7499999999998903        0.39999999999999103      0.6274647069955616
0.7999999999998909        0.39999999999999036      0.6226028640460362
0.8499999999998897        0.24999999999998979      0.5908348861525247
0.8999999999998903        0.24999999999998915      0.5222898010023089
0.8499999999998904        0.29999999999998983      0.5933113148425214
0.8999999999998909        0.2999999999999892       0.5291685188029078
0.9499999999998898        0.14999999999998845      0.43833015645869056
0.9999999999998904        0.14999999999998784      0.27668948819370404
0.9499999999998904        0.1999999999999885       0.3981681932921024
0.999999999999891         0.1999999999999879       0.22227875628687468
1.0499999999998892        0                        0.46415132617472543
1.09999999999989          0                        0.3818151737980309
1.04999999999989          0.049999999999993584     0.338696372814827
1.0999999999998904        0.049999999999993286     0.2264957897713042
1.0499999999998906        0.09999999999998717      0.21458570015318323
1.099999999999891         0.09999999999998657      0.1044489048149445
0                         1.1499999999999995       0.5539941560508427
0.049999999999946004      1.149999999999999        0.45207461032371793
0.09999999999989201       1.1499999999999986       0.29757495933486794
0                         1.1999999999999995       0.5784664338640267
0.0499999999999463        1.199999999999999        0.5075374771691976
0.0999999999998926        1.1999999999999986       0.3865316288397421
0.14999999999989133       1.049999999999998        0.06754425406872425
0.19999999999989185       1.0499999999999976       3.886901661549335E-4
0.14999999999989194       1.0999999999999979       0.09132324215442583
0.19999999999989246       1.0999999999999974       0.014123932359804052
0.2499999999998912        0.9499999999999971       -0.015621354386105766
0.2999999999998917        0.9499999999999964       -0.028011829994185652
0.24999999999989175       0.9999999999999969       -0.025310182329537564
0.2999999999998923        0.9999999999999962       -0.03449149062219265
0.34999999999989106       0.8499999999999959       0.035207009079807505
0.39999999999989166       0.8499999999999952       0.046384306901557606
0.3499999999998916        0.8999999999999959       -0.013111972097863656
0.39999999999989216       0.8999999999999952       -0.006992728735308679
0.44999999999989104       0.7499999999999946       0.37779435040481263
0.49999999999989164       0.749999999999994        0.4425625237685472
0.44999999999989165       0.7999999999999946       0.21041168618271666
0.4999999999998922        0.799999999999994        0.29400729312417206
0.549999999999891         0.6499999999999935       0.6099813685785631
0.5999999999998915        0.6499999999999928       0.6188663866066142
0.5499999999998916        0.6999999999999935       0.5774620245995551
0.5999999999998922        0.6999999999999929       0.601012060262531
0.649999999999891         0.5499999999999923       0.6291281595664867
0.6999999999998918        0.5499999999999918       0.6294139467768093
0.6499999999998916        0.5999999999999923       0.6280174583993897
0.6999999999998924        0.5999999999999919       0.6290450728291402
0.7499999999998909        0.4499999999999911       0.6282246500611981
0.7999999999998915        0.4499999999999904       0.6252176519233383
0.7499999999998916        0.4999999999999911       0.6289100991132223
0.799999999999892         0.49999999999999045      0.6272954531000872
0.8499999999998911        0.3499999999999898       0.5999771109482827
0.8999999999998916        0.34999999999998926      0.5477637000860021
0.8499999999998915        0.3999999999999898       0.6084749900846281
0.8999999999998922        0.3999999999999893       0.5715732795250839
0.9499999999998909        0.24999999999998856      0.3833860378067478
0.9999999999998915        0.24999999999998798      0.20402139502740924
0.9499999999998915        0.2999999999999886       0.3973156713838088
0.9999999999998921        0.29999999999998805      0.22131588296295537
1.049999999999891         0.14999999999998725      0.12754507798679665
1.0999999999998915        0.14999999999998664      0.03718468639977621
1.0499999999998915        0.1999999999999873       0.0815310268101561
1.099999999999892         0.1999999999999867       0.007502943261091316
1.1499999999998907        0                        0.3120936817116713
1.1999999999998912        0                        0.27231706599008904
1.149999999999891         0.04999999999999299      0.15005599174832546
1.1999999999998918        0.04999999999999269      0.11288936004373086
1.1499999999998916        0.09999999999998598      0.04501655213222561
1.1999999999998923        0.09999999999998538      0.02043293390424784
0                         1.2499999999999996       0.5991245044106799
0.049999999999946615      1.2499999999999991       0.5566868295636852
0.09999999999989323       1.2499999999999987       0.47782718072688907
0                         1.2999999999999994       0.6135091804878525
0.04999999999994692       1.299999999999999        0.5915763234080803
0.09999999999989384       1.2999999999999985       0.5491775590095844
0.14999999999989252       1.149999999999998        0.14686533831342502
0.19999999999989304       1.1499999999999975       0.04978957695825382
0.1499999999998931        1.199999999999998        0.24119873998959615
0.1999999999998936        1.1999999999999975       0.12364233753218838
0.24999999999989236       1.0499999999999967       -0.02612325964698584
0.2999999999998929        1.0499999999999963       -0.035161619797532795
0.24999999999989297       1.0999999999999968       -0.018481089616581372
0.2999999999998935        1.099999999999996        -0.030410994416262285
0.34999999999989223       0.949999999999996        -0.031208931068170402
0.3999999999998928        0.9499999999999953       -0.027773149442568302
0.34999999999989284       0.9999999999999958       -0.03685430062396017
0.39999999999989333       0.9999999999999953       -0.034594668890797486
0.44999999999989215       0.8499999999999946       0.08206804550914874
0.4999999999998927        0.8499999999999941       0.1537166640156404
0.4499999999998927        0.8999999999999947       0.013844779508838403
0.4999999999998932        0.8999999999999941       0.0630083691094997
0.5499999999998921        0.7499999999999936       0.5095119018791987
0.5999999999998927        0.7499999999999929       0.5633831635625827
0.5499999999998928        0.7999999999999935       0.3991233834410982
0.5999999999998933        0.7999999999999929       0.49732553891128994
0.649999999999892         0.6499999999999924       0.6245268397755901
0.6999999999998927        0.6499999999999918       0.6275652088661904
0.6499999999998926        0.6999999999999923       0.6158793478616366
0.6999999999998929        0.6999999999999917       0.6238123247176438
0.7499999999998921        0.5499999999999912       0.6293574189464664
0.7999999999998925        0.5499999999999905       0.6286280728681033
0.7499999999998926        0.5999999999999912       0.6294204720219296
0.7999999999998929        0.5999999999999905       0.6292585642856646
0.849999999999892         0.44999999999998985      0.6164500980578795
0.8999999999998927        0.4499999999999893       0.5937698125462005
0.8499999999998926        0.4999999999999899       0.6225153831499644
0.8999999999998931        0.49999999999998934      0.6103681698389337
0.949999999999892         0.34999999999998865      0.43688194147772785
0.9999999999998926        0.34999999999998804      0.27483899833210035
0.9499999999998927        0.3999999999999887       0.4910167368074947
0.9999999999998932        0.39999999999998803      0.3594521656328507
1.0499999999998921        0.24999999999998737      0.06746305270177858
1.0999999999998926        0.24999999999998676      -9.203515559742393E-4
1.0499999999998928        0.29999999999998744      0.08093718648712594
1.0999999999998933        0.29999999999998683      0.007337986461514536
1.149999999999892         0.14999999999998603      -0.003761455418591053
1.1999999999998927        0.14999999999998545      -0.018661358486923203
1.1499999999998924        0.1999999999999861       -0.02257567307702474
1.1999999999998932        0.19999999999998552      -0.03258288266127281
1.2499999999998916        0                        0.26842659548230313
1.2999999999998924        0                        0.299998010288653
1.2499999999998923        0.049999999999992384     0.10921401164225651
1.2999999999998928        0.04999999999999207      0.13797152249467756
1.249999999999893         0.09999999999998477      0.017950266524055243
1.2999999999998935        0.09999999999998414      0.03672835500299072
0                         1.3499999999999994       0.6220477151023104
0.04999999999994723       1.349999999999999        0.6121262023468078
0.09999999999989446       1.3499999999999985       0.5927299753792199
0                         1.3999999999999995       0.6265500809943297