% Model:              Baseline_Circular_BIG_1.mph
% Version:            COMSOL 6.0.0.405
% Date:               Jun 15 2024, 17:36
% Dimension:          2
% Nodes:              40401
% Expressions:        1
% Description:        Surface
% X                       Y                        Dependent variable Phid
0                         0                        0.3066809595214558
0.04999999999993898       0                        0.33552472499512476
0.09999999999987796       0                        0.34445700363867554
0                         0.05                     0.27905896925007473
0.04999999999993929       0.0499999999999997       0.3176470884673674
0.09999999999987857       0.04999999999999939      0.33080656849413625
0                         0.1                      0.21296890091930037
0.0499999999999396        0.0999999999999994       0.2686730323465409
0.0999999999998792        0.09999999999999878      0.2906981652488077
0                         0.15000000000000002      0.09163493315736293
0.04999999999993991       0.14999999999999938      0.16203924222931818
0.09999999999987982       0.14999999999999877      0.19488103063651996
0                         0.2                      -0.06025630203098536
0.04999999999994022       0.1999999999999994       0.0015693726778755327
0.09999999999988043       0.19999999999999876      0.035048373919303565
0.14999999999987856       0                        0.34496993965815526
0.19999999999987916       0                        0.3373945446568542
0.14999999999987915       0.04999999999999909      0.33106459665215837
0.19999999999987972       0.04999999999999878      0.31851369024777115
0.14999999999987976       0.09999999999999817      0.2907496768577292
0.1999999999998803        0.09999999999999756      0.2688177779360269
0                         0.25                     -0.18119828549609862
0.04999999999994051       0.24999999999999942      -0.14747649305658278
0.09999999999988102       0.24999999999999878      -0.12753839649547524
0                         0.3                      -0.24630339554279648
0.04999999999994079       0.2999999999999994       -0.23402272526024423
0.09999999999988159       0.2999999999999988       -0.22670070321982713
0.1499999999998804        0.1499999999999982       0.19449202913283437
0.19999999999988097       0.14999999999999758      0.1611303958341098
0.14999999999988103       0.19999999999999818      0.034121851117993394
0.19999999999988163       0.19999999999999762      -5.664038269062014E-4
0.24999999999987976       0                        0.31462429861153485
0.29999999999988036       0                        0.255789045169342
0.24999999999988035       0.049999999999998476     0.28406651962558543
0.299999999999881         0.04999999999999818      0.2070519766107435
0.24999999999988093       0.09999999999999695      0.2151048625652363
0.2999999999998816        0.09999999999999636      0.11596691094460336
0                         0.35                     -0.27246578700342144
0.049999999999941105      0.34999999999999937      -0.2692981122801614
0.09999999999988221       0.34999999999999876      -0.2676925683926235
0                         0.3999999999999999       -0.2810038652252524
0.04999999999994141       0.39999999999999936      -0.2809796635215757
0.09999999999988282       0.39999999999999875      -0.28148354348013366
0.14999999999988162       0.2499999999999982       -0.12846531355339277
0.19999999999988222       0.2499999999999976       -0.14994300757161066
0.1499999999998822        0.2999999999999982       -0.22751035695632038
0.19999999999988283       0.2999999999999976       -0.23640875618445262
0.24999999999988157       0.14999999999999697      0.09055820174425004
0.2999999999998822        0.14999999999999633      -0.01272455552274999
0.2499999999998822        0.19999999999999696      -0.06356478411169975
0.2999999999998828        0.19999999999999632      -0.1386235918784187
0.34999999999988096       0                        0.1339928161599229
0.39999999999988156       0                        -0.03359394678795828
0.3499999999998816        0.049999999999997866     0.07235861922665245
0.39999999999988217       0.04999999999999756      -0.08435309310484232
0.3499999999998822        0.09999999999999573      -0.02071601704484968
0.3999999999998828        0.09999999999999512      -0.14833087118950614
0                         0.4499999999999999       -0.28358429720490896
0.04999999999994173       0.4499999999999993       -0.28463331900114996
0.09999999999988346       0.44999999999999873      -0.28578016724261956
0                         0.4999999999999999       -0.28396879973742595
0.04999999999994204       0.49999999999999933      -0.2852906404523582
0.09999999999988408       0.4999999999999988       -0.2865519117340271
0.14999999999988278       0.34999999999999815      -0.26861566515490476
0.1999999999998834        0.34999999999999754      -0.27191916415026257
0.1499999999998834        0.39999999999999813      -0.28253221381292404
0.199999999999884         0.3999999999999975       -0.28388008894849087
0.24999999999988282       0.24999999999999697      -0.18513729961486353
0.29999999999988336       0.24999999999999634      -0.2225444312167511
0.2499999999998834        0.299999999999997        -0.250149277020241
0.29999999999988397       0.2999999999999964       -0.26423701163072877
0.3499999999998828        0.14999999999999575      -0.12251118450436355
0.39999999999988345       0.14999999999999516      -0.20646372492895523
0.3499999999998834        0.19999999999999576      -0.20387030663394048
0.39999999999988406       0.1999999999999952       -0.24755871131964888
0.44999999999988216       0                        -0.17251027232754398
0.49999999999988276       0                        -0.2455930583164986
0.4499999999998828        0.04999999999999725      -0.19859734987936492
0.49999999999988337       0.049999999999996936     -0.25525897648265217
0.4499999999998834        0.0999999999999945       -0.2285057753003234
0.499999999999884         0.09999999999999387      -0.26592284853526565
0                         0.5499999999999998       -0.28367942775060573
0.049999999999942354      0.5499999999999994       -0.28492232277794133
0.09999999999988471       0.5499999999999987       -0.2860059973301383
0                         0.5999999999999999       -0.28308988418301356
0.04999999999994266       0.5999999999999993       -0.2837090051702423
0.09999999999988532       0.5999999999999988       -0.28364268962522365
0.149999999999884         0.4499999999999981       -0.2868201641604358
0.1999999999998846        0.4499999999999975       -0.28750323596434996
0.14999999999988464       0.49999999999999817      -0.28750484885648275
0.19999999999988521       0.49999999999999756      -0.2878690902632982
0.24999999999988398       0.349999999999997        -0.27648217501336547
0.2999999999998846        0.3499999999999963       -0.2808845237770108
0.24999999999988456       0.3999999999999969       -0.28523513264579553
0.29999999999988514       0.39999999999999625      -0.2861924153880247
0.34999999999988396       0.24999999999999578      -0.25217751420488294
0.3999999999998846        0.24999999999999523      -0.2706980446213188
0.34999999999988457       0.2999999999999958       -0.27500964868097244
0.39999999999988517       0.2999999999999952       -0.2812862408457057
0.44999999999988394       0.14999999999999453      -0.2537052795521332
0.49999999999988454       0.14999999999999392      -0.27478326279115284
0.4499999999998846        0.19999999999999457      -0.2707166650369945
0.4999999999998851        0.19999999999999393      -0.28069809065927087
0.5499999999998834        0                        -0.273367616443615
0.599999999999884         0                        -0.2820014561950919
0.5499999999998839        0.049999999999996644     -0.2766928312274271
0.5999999999998846        0.04999999999999635      -0.28328262520032355
0.5499999999998846        0.09999999999999329      -0.280114245308686
0.5999999999998853        0.0999999999999927       -0.2843728898022571
0                         0.6499999999999998       -0.2818432455433998
0.04999999999994295       0.6499999999999992       -0.2806568288611106
0.0999999999998859        0.6499999999999987       -0.2770456490434578
0                         0.6999999999999997       -0.2788970164922475
0.04999999999994325       0.6999999999999992       -0.2730876787031707
0.0999999999998865        0.6999999999999986       -0.2604233419003619
0.14999999999988525       0.5499999999999982       -0.2865700036702933
0.19999999999988582       0.5499999999999975       -0.2863115807165084
0.14999999999988586       0.5999999999999981       -0.2823507942165731
0.1999999999998864        0.5999999999999974       -0.27962025712849986
0.24999999999988518       0.4499999999999969       -0.28775932599209336
0.29999999999988575       0.4499999999999963       -0.28753766575203743
0.24999999999988579       0.4999999999999969       -0.2877102263970189
0.29999999999988636       0.4999999999999963       -0.28719476392416293
0.3499999999998852        0.3499999999999958       -0.283892758150328
0.3999999999998858        0.34999999999999526      -0.28514862889998716
0.34999999999988574       0.3999999999999958       -0.2864571594828601
0.39999999999988634       0.3999999999999953       -0.2860380096702919
0.44999999999988516       0.24999999999999462      -0.27995277618728537
0.4999999999998857        0.24999999999999395      -0.28362134189186916
0.4499999999998857        0.2999999999999946       -0.28388668503082937
0.4999999999998863        0.299999999999994        -0.28442596547861704
0.5499999999998851        0.1499999999999933       -0.28274794688896193
0.5999999999998857        0.14999999999999275      -0.2850292090901916
0.5499999999998857        0.19999999999999335      -0.28427866454401396
0.5999999999998863        0.1999999999999928       -0.2852341485361846
0.6499999999998846        0                        -0.28425986427640504
0.6999999999998852        0                        -0.28442976477091064
0.6499999999998852        0.049999999999996034     -0.28496206192173046
0.6999999999998858        0.049999999999995715     -0.28499301936538346
0.6499999999998859        0.09999999999999207      -0.2853802935201201
0.6999999999998865        0.09999999999999143      -0.2853406571522625
0                         0.7499999999999998       -0.2727501726135372
0.04999999999994355       0.7499999999999991       -0.2567350661763333
0.0999999999998871        0.7499999999999987       -0.22454119853306048
0                         0.7999999999999997       -0.261114012607918
0.04999999999994385       0.7999999999999992       -0.2265219234235164
0.0999999999998877        0.7999999999999986       -0.1608310252651275
0.14999999999988647       0.649999999999998        -0.27009356645921423
0.19999999999988702       0.6499999999999975       -0.25979695656557195
0.14999999999988706       0.699999999999998        -0.2388419396063888
0.19999999999988763       0.6999999999999974       -0.20945340494450057
0.24999999999988637       0.5499999999999969       -0.2854551983118518
0.2999999999998869        0.5499999999999963       -0.2844809609978519
0.24999999999988698       0.5999999999999969       -0.27614064114724496
0.2999999999998875        0.5999999999999963       -0.2731756436804382
0.34999999999988635       0.44999999999999574      -0.28696020850133236
0.39999999999988695       0.44999999999999524      -0.28625876784895543
0.34999999999988696       0.4999999999999957       -0.2865094701600093
0.39999999999988756       0.49999999999999517      -0.28603391087287294
0.4499999999998863        0.3499999999999946       -0.28508379085665003
0.49999999999988687       0.349999999999994        -0.2843380609317568
0.44999999999988693       0.39999999999999464      -0.28523532037492777
0.4999999999998875        0.39999999999999397      -0.28414270651477963
0.5499999999998864        0.24999999999999337      -0.28467313036090847
0.5999999999998868        0.2499999999999928       -0.28489257501223825
0.5499999999998869        0.2999999999999934       -0.28419161077946903
0.5999999999998875        0.29999999999999283      -0.28413133674682184
0.6499999999998863        0.1499999999999921       -0.28552025894219196
0.6999999999998869        0.14999999999999147      -0.2854790430639786
0.6499999999998869        0.19999999999999216      -0.28546401997713616
0.6999999999998875        0.19999999999999152      -0.28544385387016563
0.7499999999998858        0                        -0.28427789453521907
0.7999999999998864        0                        -0.28349599361071326
0.7499999999998864        0.049999999999995416     -0.2845386521986588
0.7999999999998869        0.04999999999999512      -0.2826264902966007
0.749999999999887         0.09999999999999083      -0.2846117634159073
0.7999999999998875        0.09999999999999024      -0.2811381834975446
0                         0.8499999999999996       -0.24277856614775384
0.04999999999994416       0.8499999999999992       -0.18072682367101103
0.09999999999988832       0.8499999999999985       -0.07254173815653177
0                         0.8999999999999997       -0.21981851106730224
0.04999999999994447       0.8999999999999991       -0.12655131062733704
0.09999999999988894       0.8999999999999986       0.017902042793740358
0.14999999999988767       0.749999999999998        -0.17261029568599506
0.19999999999988824       0.7499999999999974       -0.10736242823462366
0.14999999999988828       0.799999999999998        -0.06480369083412094
0.19999999999988885       0.7999999999999975       0.03765671026173217
0.2499999999998876        0.6499999999999968       -0.24811480379504255
0.29999999999988813       0.6499999999999964       -0.23882426315061772
0.2499999999998882        0.6999999999999968       -0.17785085762320857
0.29999999999988874       0.6999999999999963       -0.15388083695894644
0.3499999999998875        0.5499999999999957       -0.28380213197277754
0.3999999999998881        0.5499999999999952       -0.283753418470988
0.3499999999998881        0.5999999999999958       -0.27206184122636035
0.3999999999998887        0.5999999999999952       -0.2732081575376373
0.4499999999998875        0.4499999999999946       -0.28539191804984326
0.4999999999998881        0.44999999999999407      -0.2843296155993714
0.4499999999998881        0.49999999999999467      -0.28550258254408867
0.49999999999988864       0.4999999999999941       -0.2848642630594304
0.5499999999998875        0.3499999999999934       -0.28362081543180545
0.5999999999998881        0.3499999999999929       -0.2834571552271716
0.549999999999888         0.39999999999999347      -0.2833660287618755
0.5999999999998886        0.3999999999999929       -0.28321987659659215
0.6499999999998874        0.24999999999999217      -0.28512162438283106
0.699999999999888         0.24999999999999156      -0.28521930498635495
0.649999999999888         0.2999999999999922       -0.2844811047391
0.6999999999998886        0.2999999999999916       -0.284802644004759
0.7499999999998874        0.14999999999999086      -0.2844893745186014
0.799999999999888         0.1499999999999903       -0.27932373226180696
0.7499999999998881        0.19999999999999094      -0.284283604025429
0.7999999999998886        0.19999999999999035      -0.2778182150439652
0.849999999999887         0                        -0.2803139722744348
0.8999999999998876        0                        -0.27043792145541756
0.8499999999998875        0.04999999999999482      -0.2759389179882349
0.8999999999998881        0.04999999999999452      -0.2561735972912139
0.8499999999998881        0.09999999999998964      -0.2695157887908999
0.8999999999998887        0.09999999999998904      -0.23609725468050766
0                         0.9499999999999997       -0.19800973407323907
0.04999999999994478       0.9499999999999992       -0.07853404417962294
0.09999999999988957       0.9499999999999986       0.08570975274134501
0                         0.9999999999999997       -0.18475797844393668
0.04999999999994509       0.9999999999999991       -0.05105156876884992
0.09999999999989018       0.9999999999999987       0.12023656982833279
0.1499999999998889        0.8499999999999981       0.060615787328006376
0.19999999999988943       0.8499999999999974       0.17221400722256752
0.1499999999998895        0.899999999999998        0.16227419977069601
0.19999999999989004       0.8999999999999975       0.25702063567802547
0.24999999999988876       0.7499999999999969       -0.04471876966245354
0.2999999999998893        0.7499999999999962       -0.0019135751872707957
0.24999999999988937       0.7999999999999969       0.11788976750969718
0.29999999999988985       0.7999999999999963       0.1642930356115518
0.34999999999988873       0.6499999999999958       -0.23574066945501776
0.39999999999988933       0.6499999999999952       -0.2399554188822152
0.3499999999998893        0.6999999999999957       -0.14583846324468525
0.3999999999998899        0.6999999999999952       -0.15626819350448926
0.4499999999998887        0.5499999999999946       -0.2841169773346082
0.49999999999988926       0.549999999999994        -0.2844109063293862
0.44999999999988927       0.5999999999999945       -0.275976059701156
0.49999999999988987       0.599999999999994        -0.279146609022206
0.5499999999998886        0.4499999999999935       -0.28368363974631045
0.5999999999998892        0.44999999999999285      -0.2835906527126434
0.5499999999998892        0.49999999999999345      -0.28439170930598207
0.5999999999998897        0.4999999999999928       -0.2843769071534836
0.6499999999998886        0.34999999999999226      -0.2838016351052933
0.6999999999998892        0.34999999999999165      -0.28432819125588077
0.6499999999998891        0.3999999999999923       -0.28350934470927586
0.6999999999998897        0.3999999999999917       -0.2840440821451912
0.7499999999998886        0.249999999999991        -0.28409562973012914
0.7999999999998892        0.24999999999999042      -0.27719218548902996
0.7499999999998892        0.29999999999999105      -0.2839913927479402
0.7999999999998898        0.2999999999999905       -0.2777209085277772
0.8499999999998886        0.14999999999998967      -0.2622090097633781
0.8999999999998892        0.14999999999998906      -0.21385918649688915
0.8499999999998892        0.1999999999999897       -0.2562243594983699
0.8999999999998898        0.19999999999998908      -0.19605283931621145
0.9499999999998882        0                        -0.24687927639729182
0.9999999999998888        0                        -0.20144072084883638
0.9499999999998887        0.0499999999999942       -0.20995807837855318
0.9999999999998893        0.04999999999999388      -0.1253143262153489
0.9499999999998893        0.0999999999999884       -0.15992829387888108
0.9999999999998899        0.09999999999998777      -0.03283848539683741
0                         1.0499999999999996       -0.18488312434180434
0.049999999999945394      1.049999999999999        -0.05056687590561395
0.09999999999989079       1.0499999999999985       0.1213722031093731
0                         1.0999999999999996       -0.197975097551411
0.049999999999945706      1.099999999999999        -0.07624635246117965
0.09999999999989141       1.0999999999999983       0.09044919155644728
0.1499999999998901        0.949999999999998        0.22271585377980044
0.19999999999989065       0.9499999999999975       0.2975016002098342
0.14999999999989072       0.9999999999999981       0.24905977036696467
0.19999999999989124       0.9999999999999976       0.31249010237692637
0.24999999999988998       0.8499999999999969       0.2400500678402369
0.29999999999989047       0.8499999999999963       0.27272186504003715
0.2499999999998906        0.899999999999997        0.3028881269061243
0.29999999999989113       0.8999999999999965       0.32129537814083886
0.3499999999998899        0.7499999999999958       0.011740856627185074
0.3999999999998905        0.7499999999999951       -0.005308673669429814
0.3499999999998905        0.7999999999999957       0.17794626640407488
0.3999999999998911        0.7999999999999952       0.16117212413514534
0.4499999999998899        0.6499999999999946       -0.24956791217323146
0.4999999999998904        0.649999999999994        -0.2610051426323649
0.4499999999998905        0.6999999999999946       -0.1813915549327102
0.49999999999989103       0.6999999999999941       -0.21265283393861686
0.5499999999998898        0.5499999999999935       -0.2846446071677995
0.5999999999998903        0.5499999999999928       -0.285027092155329
0.5499999999998904        0.5999999999999934       -0.2819517404418767
0.5999999999998908        0.5999999999999929       -0.28405677133120294
0.6499999999998898        0.4499999999999923       -0.2838196428008177
0.6999999999998905        0.44999999999999174      -0.2842592087215218
0.6499999999998904        0.4999999999999923       -0.2845894931142027
0.6999999999998912        0.4999999999999918       -0.2848313859079868
0.7499999999998898        0.34999999999999104      -0.283985917706073
0.7999999999998904        0.34999999999999043      -0.27918527138176963
0.7499999999998903        0.39999999999999103      -0.2841132036623169
0.7999999999998909        0.39999999999999036      -0.28106786642065745
0.8499999999998897        0.24999999999998979      -0.25385768038649054
0.8999999999998903        0.24999999999998915      -0.18910525826051444
0.8499999999998904        0.29999999999998983      -0.25604952384284946
0.8999999999998909        0.2999999999999892       -0.19558331064268908
0.9499999999998898        0.14999999999998845      -0.10763847335256625
0.9999999999998904        0.14999999999998784      0.04994254862403696
0.9499999999998904        0.1999999999999885       -0.06878451269066209
0.999999999999891         0.1999999999999879       0.10288986139932278
1.0499999999998892        0                        -0.1321294031393773
1.09999999999989          0                        -0.052209183729975156
1.04999999999989          0.049999999999993584     -0.010239908525686616
1.0999999999998904        0.049999999999993286     0.0993014177671048
1.0499999999998906        0.09999999999998717      0.11070253689012141
1.099999999999891         0.09999999999998657      0.21795936963931192
0                         1.1499999999999995       -0.21938965331465587
0.049999999999946004      1.149999999999999        -0.12206713060417264
0.09999999999989201       1.1499999999999986       0.02758827461586881
0                         1.1999999999999995       -0.24248237927132527
0.0499999999999463        1.199999999999999        -0.17559826267097936
0.0999999999998926        1.1999999999999986       -0.05891863049098512
0.14999999999989133       1.049999999999998        0.25018206080278393
0.19999999999989185       1.0499999999999976       0.3131556927094048
0.14999999999989194       1.0999999999999979       0.22715639974662002
0.19999999999989246       1.0999999999999974       0.30021760386112595
0.2499999999998912        0.9499999999999971       0.3282661137322676
0.2999999999998917        0.9499999999999964       0.33865829654710156
0.24999999999989175       0.9999999999999969       0.3362618815603311
0.2999999999998923        0.9999999999999962       0.34343510635288493
0.34999999999989106       0.8499999999999959       0.28156848552512015
0.39999999999989166       0.8499999999999952       0.27057379021912076
0.3499999999998916        0.8999999999999959       0.32592774904981486
0.39999999999989216       0.8999999999999952       0.3200821791123177
0.44999999999989104       0.7499999999999946       -0.05009943879804117
0.49999999999989164       0.749999999999994        -0.11265580087259396
0.44999999999989165       0.7999999999999946       0.11257329593740972
0.4999999999998922        0.799999999999994        0.03156790312224289
0.549999999999891         0.6499999999999935       -0.2712108562255886
0.5999999999998915        0.6499999999999928       -0.27873372671251384
0.5499999999998916        0.6999999999999935       -0.24156068437553968
0.5999999999998922        0.6999999999999929       -0.2631938241668211
0.649999999999891         0.5499999999999923       -0.2852891403982397
0.6999999999998918        0.5499999999999918       -0.28537930776972115
0.6499999999998916        0.5999999999999923       -0.2852305705582674
0.6999999999998924        0.5999999999999919       -0.2856057371070221
0.7499999999998909        0.4499999999999911       -0.2844616636522596
0.7999999999998915        0.4499999999999904       -0.2829450150623526
0.7499999999998916        0.4999999999999911       -0.2850054093921834
0.799999999999892         0.49999999999999045      -0.28447359283268925
0.8499999999998911        0.3499999999999898       -0.2619409373906978
0.8999999999998916        0.34999999999998926      -0.21310580465125908
0.8499999999998915        0.3999999999999898       -0.26931137098901187
0.8999999999998922        0.3999999999999893       -0.2353615854030587
0.9499999999998909        0.24999999999998856      -0.054463439472008296
0.9999999999998915        0.24999999999998798      0.12061765057354512
0.9499999999998915        0.2999999999999886       -0.0678861983291641
0.9999999999998921        0.29999999999998805      0.103907196264351
1.049999999999891         0.14999999999998725      0.1953317693471826
1.0999999999998915        0.14999999999998664      0.2826109102922951
1.0499999999998915        0.1999999999999873       0.23980710044877016
1.099999999999892         0.1999999999999867       0.310644526087399
1.1499999999998907        0                        0.01571124590397502
1.1999999999998912        0                        0.054394236539613866
1.149999999999891         0.04999999999999299      0.1738635690166177
1.1999999999998918        0.04999999999999269      0.2097400827291674
1.1499999999998916        0.09999999999998598      0.2752533053969105
1.1999999999998923        0.09999999999998538      0.29846560370393393
0                         1.2499999999999996       -0.2613969899318896
0.049999999999946615      1.2499999999999991       -0.22237588849836093
0.09999999999989323       1.2499999999999987       -0.1471661267126736
0                         1.2999999999999994       -0.2737820236040875
0.04999999999994692       1.299999999999999        -0.2546461618579885
0.09999999999989384       1.2999999999999985       -0.21513125849647796
0.14999999999989252       1.149999999999998        0.1735770260003083
0.19999999999989304       1.1499999999999975       0.26666364782888347
0.1499999999998931        1.199999999999998        0.08216971517841919
0.1999999999998936        1.1999999999999975       0.1961135430755094
0.24999999999989236       1.0499999999999967       0.3366072242583678
0.2999999999998929        1.0499999999999963       0.3437128400888588
0.24999999999989297       1.0999999999999968       0.3298369721609477
0.2999999999998935        1.099999999999996        0.3399389766984399
0.34999999999989223       0.949999999999996        0.34106145608526517
0.3999999999998928        0.9499999999999953       0.338042846813667
0.34999999999989284       0.9999999999999958       0.3449976372214103
0.39999999999989333       0.9999999999999953       0.34327961325471523
0.44999999999989215       0.8499999999999946       0.2364131302611042
0.4999999999998927        0.8499999999999941       0.16759630135373296
0.4499999999998927        0.8999999999999947       0.3008753837901612
0.4999999999998932        0.8999999999999941       0.25469240816975797
0.5499999999998921        0.7499999999999936       -0.1768949855659824
0.5999999999998927        0.7499999999999929       -0.22821595250543011
0.5499999999998928        0.7999999999999935       -0.07032450328038786
0.5999999999998933        0.7999999999999929       -0.16520851312557241
0.649999999999892         0.6499999999999924       -0.2831641352339437
0.6999999999998927        0.6499999999999918       -0.28503124538174424
0.6499999999998926        0.6999999999999923       -0.2762630112370822
0.6999999999998929        0.6999999999999917       -0.2824636600364517
0.7499999999998921        0.5499999999999912       -0.2854619321521741
0.7999999999998925        0.5499999999999905       -0.2853223361858261
0.7499999999998926        0.5999999999999912       -0.2856478812549986
0.7999999999998929        0.5999999999999905       -0.2856016191265856
0.849999999999892         0.44999999999998985      -0.2761372938771394
0.8999999999998927        0.4499999999999893       -0.25583350315379233
0.8499999999998926        0.4999999999999899       -0.2811708828819892
0.8999999999998931        0.49999999999998934      -0.27082312924193197
0.949999999999892         0.34999999999998865      -0.10604465330684844
0.9999999999998926        0.34999999999998804      0.05207962605851694
0.9499999999998927        0.3999999999999887       -0.15807309170652
0.9999999999998932        0.39999999999998803      -0.02990725431228953
1.0499999999998921        0.24999999999998737      0.2532808142178593
1.0999999999998926        0.24999999999998676      0.318470134629167
1.0499999999998928        0.29999999999998744      0.24044352053512846
1.0999999999998933        0.29999999999998683      0.3108389592414496
1.149999999999892         0.14999999999998603      0.3212493962044245
1.1999999999998927        0.14999999999998545      0.3347546596131809
1.1499999999998924        0.1999999999999861       0.33840262728033316
1.1999999999998932        0.19999999999998552      0.347098660330327
1.2499999999998916        0                        0.058015336017824125
1.2999999999998924        0                        0.027118100371737314
1.2499999999998923        0.049999999999992384     0.21303847141180604
1.2999999999998928        0.04999999999999207      0.185081992338536
1.249999999999893         0.09999999999998477      0.30055547556855244