% Model:              Baseline_Circular_BIG_1.mph
% Version:            COMSOL 6.0.0.405
% Date:               May 22 2024, 19:43
% Dimension:          2
% Nodes:              40401
% Expressions:        1
% Description:        Surface
% X                       Y                        Color
0                         0                        1.5
0.04999999999993898       0                        1.5
0.09999999999987796       0                        1.5
0                         0.05                     1.5
0.04999999999993929       0.0499999999999997       1.5
0.09999999999987857       0.04999999999999939      1.5
0                         0.1                      1.5
0.0499999999999396        0.0999999999999994       1.5
0.0999999999998792        0.09999999999999878      1.5
0                         0.15000000000000002      1.5
0.04999999999993991       0.14999999999999938      1.5
0.09999999999987982       0.14999999999999877      1.5
0                         0.2                      1.5
0.04999999999994022       0.1999999999999994       1.5
0.09999999999988043       0.19999999999999876      1.5
0.14999999999987856       0                        1.5
0.19999999999987916       0                        1.5
0.14999999999987915       0.04999999999999909      1.5
0.19999999999987972       0.04999999999999878      1.5
0.14999999999987976       0.09999999999999817      1.5
0.1999999999998803        0.09999999999999756      1.5
0                         0.25                     1.5
0.04999999999994051       0.24999999999999942      1.5
0.09999999999988102       0.24999999999999878      1.5
0                         0.3                      1.5
0.04999999999994079       0.2999999999999994       1.5
0.09999999999988159       0.2999999999999988       1.5
0.1499999999998804        0.1499999999999982       1.5
0.19999999999988097       0.14999999999999758      1.5
0.14999999999988103       0.19999999999999818      1.5
0.19999999999988163       0.19999999999999762      1.5
0.24999999999987976       0                        1.5
0.29999999999988036       0                        1.5
0.24999999999988035       0.049999999999998476     1.5
0.299999999999881         0.04999999999999818      1.5
0.24999999999988093       0.09999999999999695      1.5
0.2999999999998816        0.09999999999999636      1.5
0                         0.35                     1.5
0.049999999999941105      0.34999999999999937      1.5
0.09999999999988221       0.34999999999999876      1.5
0                         0.3999999999999999       1.5
0.04999999999994141       0.39999999999999936      1.5
0.09999999999988282       0.39999999999999875      1.5
0.14999999999988162       0.2499999999999982       1.5
0.19999999999988222       0.2499999999999976       1.5
0.1499999999998822        0.2999999999999982       1.5
0.19999999999988283       0.2999999999999976       1.5
0.24999999999988157       0.14999999999999697      1.5
0.2999999999998822        0.14999999999999633      1.5
0.2499999999998822        0.19999999999999696      1.5
0.2999999999998828        0.19999999999999632      1.5
0.34999999999988096       0                        1.5
0.39999999999988156       0                        1.5
0.3499999999998816        0.049999999999997866     1.5
0.39999999999988217       0.04999999999999756      1.5
0.3499999999998822        0.09999999999999573      1.5
0.3999999999998828        0.09999999999999512      1.5
0                         0.4499999999999999       1.5
0.04999999999994173       0.4499999999999993       1.5
0.09999999999988346       0.44999999999999873      1.5
0                         0.4999999999999999       1.5
0.04999999999994204       0.49999999999999933      1.5
0.09999999999988408       0.4999999999999988       1.5
0.14999999999988278       0.34999999999999815      1.5
0.1999999999998834        0.34999999999999754      1.5
0.1499999999998834        0.39999999999999813      1.5
0.199999999999884         0.3999999999999975       1.5
0.24999999999988282       0.24999999999999697      1.5
0.29999999999988336       0.24999999999999634      1.5
0.2499999999998834        0.299999999999997        1.5
0.29999999999988397       0.2999999999999964       1.5
0.3499999999998828        0.14999999999999575      1.5
0.39999999999988345       0.14999999999999516      1.5
0.3499999999998834        0.19999999999999576      1.5
0.39999999999988406       0.1999999999999952       1.5
0.44999999999988216       0                        1.5
0.49999999999988276       0                        1.5
0.4499999999998828        0.04999999999999725      1.5
0.49999999999988337       0.049999999999996936     1.5
0.4499999999998834        0.0999999999999945       1.5
0.499999999999884         0.09999999999999387      1.5
0                         0.5499999999999998       1.5
0.049999999999942354      0.5499999999999994       1.5
0.09999999999988471       0.5499999999999987       1.5
0                         0.5999999999999999       1.5
0.04999999999994266       0.5999999999999993       1.5
0.09999999999988532       0.5999999999999988       1.5
0.149999999999884         0.4499999999999981       1.5
0.1999999999998846        0.4499999999999975       1.5
0.14999999999988464       0.49999999999999817      1.5
0.19999999999988521       0.49999999999999756      1.5
0.24999999999988398       0.349999999999997        1.5
0.2999999999998846        0.3499999999999963       1.5
0.24999999999988456       0.3999999999999969       1.5
0.29999999999988514       0.39999999999999625      1.5
0.34999999999988396       0.24999999999999578      1.5
0.3999999999998846        0.24999999999999523      1.5
0.34999999999988457       0.2999999999999958       1.5
0.39999999999988517       0.2999999999999952       1.5
0.44999999999988394       0.14999999999999453      1.5
0.49999999999988454       0.14999999999999392      1.5
0.4499999999998846        0.19999999999999457      1.5
0.4999999999998851        0.19999999999999393      1.5
0.5499999999998834        0                        1.5
0.599999999999884         0                        1.5
0.5499999999998839        0.049999999999996644     1.5
0.5999999999998846        0.04999999999999635      1.5
0.5499999999998846        0.09999999999999329      1.5
0.5999999999998853        0.0999999999999927       1.5
0                         0.6499999999999998       1.5
0.04999999999994295       0.6499999999999992       1.5
0.0999999999998859        0.6499999999999987       1.5
0                         0.6999999999999997       1.5
0.04999999999994325       0.6999999999999992       1.5
0.0999999999998865        0.6999999999999986       1.5
0.14999999999988525       0.5499999999999982       1.5
0.19999999999988582       0.5499999999999975       1.5
0.14999999999988586       0.5999999999999981       1.5
0.1999999999998864        0.5999999999999974       1.5
0.24999999999988518       0.4499999999999969       1.5
0.29999999999988575       0.4499999999999963       1.5
0.24999999999988579       0.4999999999999969       1.5
0.29999999999988636       0.4999999999999963       1.5
0.3499999999998852        0.3499999999999958       1.5
0.3999999999998858        0.34999999999999526      1.5
0.34999999999988574       0.3999999999999958       1.5
0.39999999999988634       0.3999999999999953       1.5
0.44999999999988516       0.24999999999999462      1.5
0.4999999999998857        0.24999999999999395      1.5
0.4499999999998857        0.2999999999999946       1.5
0.4999999999998863        0.299999999999994        1.5
0.5499999999998851        0.1499999999999933       1.5
0.5999999999998857        0.14999999999999275      1.5
0.5499999999998857        0.19999999999999335      1.5
0.5999999999998863        0.1999999999999928       1.5
0.6499999999998846        0                        1.5
0.6999999999998852        0                        1.5
0.6499999999998852        0.049999999999996034     1.5
0.6999999999998858        0.049999999999995715     1.5
0.6499999999998859        0.09999999999999207      1.5
0.6999999999998865        0.09999999999999143      1.5
0                         0.7499999999999998       1.5
0.04999999999994355       0.7499999999999991       1.5
0.0999999999998871        0.7499999999999987       1.5
0                         0.7999999999999997       1.5
0.04999999999994385       0.7999999999999992       1.5
0.0999999999998877        0.7999999999999986       1.5
0.14999999999988647       0.649999999999998        1.5
0.19999999999988702       0.6499999999999975       1.5
0.14999999999988706       0.699999999999998        1.5
0.19999999999988763       0.6999999999999974       1.5
0.24999999999988637       0.5499999999999969       1.5
0.2999999999998869        0.5499999999999963       1.5
0.24999999999988698       0.5999999999999969       1.5
0.2999999999998875        0.5999999999999963       1.5
0.34999999999988635       0.44999999999999574      1.5
0.39999999999988695       0.44999999999999524      1.5
0.34999999999988696       0.4999999999999957       1.5
0.39999999999988756       0.49999999999999517      1.5
0.4499999999998863        0.3499999999999946       1.5
0.49999999999988687       0.349999999999994        1.5
0.44999999999988693       0.39999999999999464      1.5
0.4999999999998875        0.39999999999999397      1.5
0.5499999999998864        0.24999999999999337      1.5
0.5999999999998868        0.2499999999999928       1.5
0.5499999999998869        0.2999999999999934       1.5
0.5999999999998875        0.29999999999999283      1.5
0.6499999999998863        0.1499999999999921       1.5
0.6999999999998869        0.14999999999999147      1.5
0.6499999999998869        0.19999999999999216      1.5
0.6999999999998875        0.19999999999999152      1.5
0.7499999999998858        0                        1.5
0.7999999999998864        0                        1.5
0.7499999999998864        0.049999999999995416     1.5
0.7999999999998869        0.04999999999999512      1.5
0.749999999999887         0.09999999999999083      1.5
0.7999999999998875        0.09999999999999024      1.5
0                         0.8499999999999996       1.5
0.04999999999994416       0.8499999999999992       1.5
0.09999999999988832       0.8499999999999985       1.5
0                         0.8999999999999997       1.5
0.04999999999994447       0.8999999999999991       1.5
0.09999999999988894       0.8999999999999986       1.5
0.14999999999988767       0.749999999999998        1.5
0.19999999999988824       0.7499999999999974       1.5
0.14999999999988828       0.799999999999998        1.5
0.19999999999988885       0.7999999999999975       1.5
0.2499999999998876        0.6499999999999968       1.5
0.29999999999988813       0.6499999999999964       1.5
0.2499999999998882        0.6999999999999968       1.5
0.29999999999988874       0.6999999999999963       1.5
0.3499999999998875        0.5499999999999957       1.5
0.3999999999998881        0.5499999999999952       1.5
0.3499999999998881        0.5999999999999958       1.5
0.3999999999998887        0.5999999999999952       1.5
0.4499999999998875        0.4499999999999946       1.5
0.4999999999998881        0.44999999999999407      1.5
0.4499999999998881        0.49999999999999467      1.5
0.49999999999988864       0.4999999999999941       1.5
0.5499999999998875        0.3499999999999934       1.5
0.5999999999998881        0.3499999999999929       1.5
0.549999999999888         0.39999999999999347      1.5
0.5999999999998886        0.3999999999999929       1.5
0.6499999999998874        0.24999999999999217      1.5
0.699999999999888         0.24999999999999156      1.5
0.649999999999888         0.2999999999999922       1.5
0.6999999999998886        0.2999999999999916       1.5
0.7499999999998874        0.14999999999999086      1.5
0.799999999999888         0.1499999999999903       1.5
0.7499999999998881        0.19999999999999094      1.5
0.7999999999998886        0.19999999999999035      1.5
0.849999999999887         0                        1.5
0.8999999999998876        0                        1.5
0.8499999999998875        0.04999999999999482      1.5
0.8999999999998881        0.04999999999999452      1.5
0.8499999999998881        0.09999999999998964      1.5
0.8999999999998887        0.09999999999998904      1.5
0                         0.9499999999999997       1.5
0.04999999999994478       0.9499999999999992       1.5
0.09999999999988957       0.9499999999999986       1.5
0                         0.9999999999999997       1.5
0.04999999999994509       0.9999999999999991       1.5
0.09999999999989018       0.9999999999999987       1.5
0.1499999999998889        0.8499999999999981       1.5
0.19999999999988943       0.8499999999999974       1.5
0.1499999999998895        0.899999999999998        1.5
0.19999999999989004       0.8999999999999975       1.5
0.24999999999988876       0.7499999999999969       1.5
0.2999999999998893        0.7499999999999962       1.5
0.24999999999988937       0.7999999999999969       1.5
0.29999999999988985       0.7999999999999963       1.5
0.34999999999988873       0.6499999999999958       1.5
0.39999999999988933       0.6499999999999952       1.5
0.3499999999998893        0.6999999999999957       1.5
0.3999999999998899        0.6999999999999952       1.5
0.4499999999998887        0.5499999999999946       1.5
0.49999999999988926       0.549999999999994        1.5
0.44999999999988927       0.5999999999999945       1.5
0.49999999999988987       0.599999999999994        1.5
0.5499999999998886        0.4499999999999935       1.5
0.5999999999998892        0.44999999999999285      1.5
0.5499999999998892        0.49999999999999345      1.5
0.5999999999998897        0.4999999999999928       1.5
0.6499999999998886        0.34999999999999226      1.5
0.6999999999998892        0.34999999999999165      1.5
0.6499999999998891        0.3999999999999923       1.5
0.6999999999998897        0.3999999999999917       1.5
0.7499999999998886        0.249999999999991        1.5
0.7999999999998892        0.24999999999999042      1.5
0.7499999999998892        0.29999999999999105      1.5
0.7999999999998898        0.2999999999999905       1.5
0.8499999999998886        0.14999999999998967      1.5
0.8999999999998892        0.14999999999998906      1.5
0.8499999999998892        0.1999999999999897       1.5
0.8999999999998898        0.19999999999998908      1.5
0.9499999999998882        0                        1.5
0.9999999999998888        0                        1.5
0.9499999999998887        0.0499999999999942       1.5
0.9999999999998893        0.04999999999999388      1.5
0.9499999999998893        0.0999999999999884       1.5
0.9999999999998899        0.09999999999998777      1.5
0                         1.0499999999999996       1.5
0.049999999999945394      1.049999999999999        1.5
0.09999999999989079       1.0499999999999985       1.5
0                         1.0999999999999996       1.5
0.049999999999945706      1.099999999999999        1.5
0.09999999999989141       1.0999999999999983       1.5
0.1499999999998901        0.949999999999998        1.5
0.19999999999989065       0.9499999999999975       1.5
0.14999999999989072       0.9999999999999981       1.5
0.19999999999989124       0.9999999999999976       1.5
0.24999999999988998       0.8499999999999969       1.5
0.29999999999989047       0.8499999999999963       1.5
0.2499999999998906        0.899999999999997        1.5
0.29999999999989113       0.8999999999999965       1.5
0.3499999999998899        0.7499999999999958       1.5
0.3999999999998905        0.7499999999999951       1.5
0.3499999999998905        0.7999999999999957       1.5
0.3999999999998911        0.7999999999999952       1.5
0.4499999999998899        0.6499999999999946       1.5
0.4999999999998904        0.649999999999994        1.5
0.4499999999998905        0.6999999999999946       1.5
0.49999999999989103       0.6999999999999941       1.5
0.5499999999998898        0.5499999999999935       1.5
0.5999999999998903        0.5499999999999928       1.5
0.5499999999998904        0.5999999999999934       1.5
0.5999999999998908        0.5999999999999929       1.5
0.6499999999998898        0.4499999999999923       1.5
0.6999999999998905        0.44999999999999174      1.5
0.6499999999998904        0.4999999999999923       1.5
0.6999999999998912        0.4999999999999918       1.5
0.7499999999998898        0.34999999999999104      1.5
0.7999999999998904        0.34999999999999043      1.5
0.7499999999998903        0.39999999999999103      1.5
0.7999999999998909        0.39999999999999036      1.5
0.8499999999998897        0.24999999999998979      1.5
0.8999999999998903        0.24999999999998915      1.5
0.8499999999998904        0.29999999999998983      1.5
0.8999999999998909        0.2999999999999892       1.5
0.9499999999998898        0.14999999999998845      1.5
0.9999999999998904        0.14999999999998784      1.5
0.9499999999998904        0.1999999999999885       1.5
0.999999999999891         0.1999999999999879       1.5
1.0499999999998892        0                        1.5
1.09999999999989          0                        1.5
1.04999999999989          0.049999999999993584     1.5
1.0999999999998904        0.049999999999993286     1.5
1.0499999999998906        0.09999999999998717      1.5
1.099999999999891         0.09999999999998657      1.5
0                         1.1499999999999995       1.5
0.049999999999946004      1.149999999999999        1.5
0.09999999999989201       1.1499999999999986       1.5
0                         1.1999999999999995       1.5
0.0499999999999463        1.199999999999999        1.5
0.0999999999998926        1.1999999999999986       1.5
0.14999999999989133       1.049999999999998        1.5
0.19999999999989185       1.0499999999999976       1.5
0.14999999999989194       1.0999999999999979       1.5
0.19999999999989246       1.0999999999999974       1.5
0.2499999999998912        0.9499999999999971       1.5
0.2999999999998917        0.9499999999999964       1.5
0.24999999999989175       0.9999999999999969       1.5
0.2999999999998923        0.9999999999999962       1.5
0.34999999999989106       0.8499999999999959       1.5
0.39999999999989166       0.8499999999999952       1.5
0.3499999999998916        0.8999999999999959       1.5
0.39999999999989216       0.8999999999999952       1.5
0.44999999999989104       0.7499999999999946       1.5
0.49999999999989164       0.749999999999994        1.5
0.44999999999989165       0.7999999999999946       1.5
0.4999999999998922        0.799999999999994        1.5
0.549999999999891         0.6499999999999935       1.5
0.5999999999998915        0.6499999999999928       1.5
0.5499999999998916        0.6999999999999935       1.5
0.5999999999998922        0.6999999999999929       1.5
0.649999999999891         0.5499999999999923       1.5
0.6999999999998918        0.5499999999999918       1.5
0.6499999999998916        0.5999999999999923       1.5
0.6999999999998924        0.5999999999999919       1.5
0.7499999999998909        0.4499999999999911       1.5
0.7999999999998915        0.4499999999999904       1.5
0.7499999999998916        0.4999999999999911       1.5
0.799999999999892         0.49999999999999045      1.5
0.8499999999998911        0.3499999999999898       1.5
0.8999999999998916        0.34999999999998926      1.5
0.8499999999998915        0.3999999999999898       1.5
0.8999999999998922        0.3999999999999893       1.5
0.9499999999998909        0.24999999999998856      1.5
0.9999999999998915        0.24999999999998798      1.5
0.9499999999998915        0.2999999999999886       1.5
0.9999999999998921        0.29999999999998805      1.5
1.049999999999891         0.14999999999998725      1.5
1.0999999999998915        0.14999999999998664      1.5
1.0499999999998915        0.1999999999999873       1.5
1.099999999999892         0.1999999999999867       1.5
1.1499999999998907        0                        1.5
1.1999999999998912        0                        1.5
1.149999999999891         0.04999999999999299      1.5
1.1999999999998918        0.04999999999999269      1.5
1.1499999999998916        0.09999999999998598      1.5
1.1999999999998923        0.09999999999998538      1.5
0                         1.2499999999999996       1.5
0.049999999999946615      1.2499999999999991       1.5
0.09999999999989323       1.2499999999999987       1.5
0                         1.2999999999999994       1.5
0.04999999999994692       1.299999999999999        1.5
0.09999999999989384       1.2999999999999985       1.5
0.14999999999989252       1.149999999999998        1.5
0.19999999999989304       1.1499999999999975       1.5
0.1499999999998931        1.199999999999998        1.5
0.1999999999998936        1.1999999999999975       1.5
0.24999999999989236       1.0499999999999967       1.5
0.2999999999998929        1.0499999999999963       1.5
0.24999999999989297       1.0999999999999968       1.5
0.2999999999998935        1.099999999999996        1.5
0.34999999999989223       0.949999999999996        1.5
0.3999999999998928        0.9499999999999953       1.5
0.34999999999989284       0.9999999999999958       1.5
0.39999999999989333       0.9999999999999953       1.5
0.44999999999989215       0.8499999999999946       1.5
0.4999999999998927        0.8499999999999941       1.5
0.4499999999998927        0.8999999999999947       1.5
0.4999999999998932        0.8999999999999941       1.5
0.5499999999998921        0.7499999999999936       1.5
0.5999999999998927        0.7499999999999929       1.5
0.5499999999998928        0.7999999999999935       1.5
0.5999999999998933        0.7999999999999929       1.5
0.649999999999892         0.6499999999999924       1.5
0.6999999999998927        0.6499999999999918       1.5
0.6499999999998926        0.6999999999999923       1.5
0.6999999999998929        0.6999999999999917       1.5
0.7499999999998921        0.5499999999999912       1.5
0.7999999999998925        0.5499999999999905       1.5
0.7499999999998926        0.5999999999999912       1.5
0.7999999999998929        0.5999999999999905       1.5
0.849999999999892         0.44999999999998985      1.5
0.8999999999998927        0.4499999999999893       1.5
0.8499999999998926        0.4999999999999899       1.5
0.8999999999998931        0.49999999999998934      1.5
0.949999999999892         0.34999999999998865      1.5
0.9999999999998926        0.34999999999998804      1.5
0.9499999999998927        0.3999999999999887       1.5
0.9999999999998932        0.39999999999998803      1.5
1.0499999999998921        0.24999999999998737      1.5
1.0999999999998926        0.24999999999998676      1.5
1.0499999999998928        0.29999999999998744      1.5
1.0999999999998933        0.29999999999998683      1.5
1.149999999999892         0.14999999999998603      1.5
1.1999999999998927        0.14999999999998545      1.5
1.1499999999998924        0.1999999999999861       1.5
1.1999999999998932        0.19999999999998552      1.5
1.2499999999998916        0                        1.5
1.2999999999998924        0                        1.5
1.2499999999998923        0.049999999999992384     1.5
1.2999999999998928        0.04999999999999207      1.5
1.249999999999893         0.09999999999998477      1.5
1.2999999999998935        0.09999999999998414      1.5
0                         1.3499999999999994       1.5
0.04999999999994723       1.349999999999999        1.5
0.09999999999989446       1.3499999999999985       1.5
0                         1.3999999999999995       1.5
0.049999999999947545      1.399999999999999        1.5
0.09999999999989509       1.3999999999999986       1.5
0.14999999999989372       1.2499999999999978       1.5
0.1999999999998942        1.2499999999999973       1.5
0.14999999999989433       1.2999999999999978       1.5
0.19999999999989482       1.2999999999999972       1.5
0.24999999999989359       1.1499999999999968       1.5
0.29999999999989413       1.1499999999999964       1.5
0.24999999999989417       1.199999999999997        1.5
0.29999999999989474       1.1999999999999964       1.5
0.3499999999998934        1.0499999999999956       1.5
0.39999999999989394       1.0499999999999952       1.5
0.34999999999989406       1.0999999999999956       1.5
0.39999999999989455       1.099999999999995        1.5
0.4499999999998933        0.9499999999999947       1.5
0.49999999999989386       0.9499999999999942       1.5
0.44999999999989393       0.9999999999999948       1.5
0.49999999999989453       0.9999999999999942       1.5
0.5499999999998934        0.8499999999999936       1.5
0.599999999999894         0.849999999999993        1.5
0.5499999999998939        0.8999999999999936       1.5
0.5999999999998945        0.899999999999993        1.5
0.6499999999998931        0.7499999999999923       1.5
0.6999999999998936        0.7499999999999918       1.5
0.6499999999998938        0.7999999999999924       1.5
0.6999999999998943        0.7999999999999918       1.5
0.7499999999998931        0.6499999999999913       1.5
0.7999999999998936        0.6499999999999906       1.5
0.7499999999998936        0.6999999999999912       1.5
0.7999999999998942        0.6999999999999906       1.5
0.8499999999998931        0.5499999999999899       1.5
0.8999999999998937        0.5499999999999894       1.5
0.8499999999998935        0.5999999999999899       1.5
0.8999999999998942        0.5999999999999893       1.5
0.9499999999998932        0.44999999999998874      1.5
0.9999999999998938        0.4499999999999881       1.5
0.9499999999998937        0.49999999999998873      1.5
0.9999999999998943        0.4999999999999881       1.5
1.0499999999998932        0.3499999999999875       1.5
1.099999999999894         0.3499999999999869       1.5
1.0499999999998937        0.3999999999999875       1.5
1.0999999999998944        0.399999999999987        1.5
1.149999999999893         0.24999999999998618      1.5
1.1999999999998936        0.24999999999998557      1.5
1.1499999999998938        0.2999999999999862       1.5
1.1999999999998943        0.2999999999999856       1.5
1.2499999999998934        0.1499999999999848       1.5
1.299999999999894         0.14999999999998417      1.5
1.2499999999998939        0.19999999999998486      1.5
1.2999999999998944        0.19999999999998422      1.5
1.349999999999893         0                        1.5
1.3999999999998936        0                        1.5
1.3499999999998935        0.04999999999999176      1.5
1.3999999999998942        0.049999999999991454     1.5
1.349999999999894         0.09999999999998352      1.5
1.3999999999998947        0.09999999999998291      1.5
0                         1.4499999999999995       1.5
0.04999999999994784       1.449999999999999        1.5
0.09999999999989569       1.4499999999999988       1.5
0                         1.4999999999999996       1.5
0.04999999999994814       1.4999999999999991       1.5
0.09999999999989628       1.499999999999999        1.5
0.14999999999989494       1.3499999999999979       1.5
0.19999999999989546       1.3499999999999972       1.5
0.1499999999998956        1.399999999999998        1.5
0.1999999999998961        1.3999999999999972       1.5
0.24999999999989475       1.249999999999997        1.5
0.29999999999989535       1.2499999999999964       1.5
0.24999999999989536       1.2999999999999967       1.5
0.2999999999998959        1.2999999999999963       1.5
0.34999999999989473       1.149999999999996        1.5
0.3999999999998952        1.149999999999995        1.5
0.3499999999998953        1.1999999999999957       1.5
0.3999999999998959        1.1999999999999953       1.5
0.4499999999998945        1.0499999999999947       1.5
0.4999999999998951        1.049999999999994        1.5
0.44999999999989504       1.0999999999999945       1.5
0.4999999999998956        1.099999999999994        1.5
0.5499999999998945        0.9499999999999935       1.5
0.5999999999998951        0.9499999999999931       1.5
0.549999999999895         0.9999999999999937       1.5
0.5999999999998955        0.9999999999999931       1.5
0.6499999999998944        0.8499999999999924       1.5
0.6999999999998949        0.8499999999999919       1.5
0.6499999999998951        0.8999999999999924       1.5
0.6999999999998957        0.8999999999999918       1.5
0.7499999999998942        0.7499999999999913       1.5
0.7999999999998948        0.7499999999999907       1.5
0.7499999999998948        0.7999999999999913       1.5
0.7999999999998954        0.7999999999999907       1.5
0.8499999999998942        0.6499999999999899       1.5
0.8999999999998949        0.6499999999999895       1.5
0.8499999999998948        0.6999999999999901       1.5
0.8999999999998956        0.6999999999999895       1.5
0.9499999999998943        0.5499999999999887       1.5
0.9999999999998948        0.5499999999999882       1.5
0.9499999999998947        0.5999999999999888       1.5
0.9999999999998952        0.5999999999999882       1.5
1.0499999999998944        0.4499999999999875       1.5
1.0999999999998948        0.449999999999987        1.5
1.049999999999895         0.49999999999998757      1.5
1.0999999999998955        0.49999999999998707      1.5
1.1499999999998944        0.34999999999998627      1.5
1.199999999999895         0.34999999999998566      1.5
1.149999999999895         0.39999999999998637      1.5
1.1999999999998956        0.3999999999999857       1.5
1.2499999999998945        0.24999999999998496      1.5
1.299999999999895         0.24999999999998435      1.5
1.249999999999895         0.29999999999998506      1.5
1.2999999999998957        0.29999999999998445      1.5
1.3499999999998944        0.1499999999999836       1.5
1.3999999999998949        0.149999999999983        1.5
1.3499999999998948        0.19999999999998366      1.5
1.399999999999895         0.1999999999999831       1.5
1.449999999999894         0                        1.5
1.4999999999998948        0                        1.5
1.4499999999998947        0.049999999999991156     1.5
1.4999999999998952        0.04999999999999086      1.5
1.4499999999998954        0.09999999999998231      1.5