% Model:              Baseline_Circular_BIG_1.mph
% Version:            COMSOL 6.0.0.405
% Date:               May 22 2024, 19:42
% Dimension:          2
% Nodes:              40401
% Expressions:        1
% Description:        Surface
% X                       Y                        Dependent variable Phid
0                         0                        -0.15136816437411119
0.04999999999993898       0                        -0.15576334787676394
0.09999999999987796       0                        -0.1578524533912053
0                         0.05                     -0.145761540157945
0.04999999999993929       0.0499999999999997       -0.15482186107311857
0.09999999999987857       0.04999999999999939      -0.1587542778675863
0                         0.1                      -0.1329192909165861
0.0499999999999396        0.0999999999999994       -0.1509932293363493
0.0999999999998792        0.09999999999999878      -0.1584533846739276
0                         0.15000000000000002      -0.10949187239447669
0.04999999999993991       0.14999999999999938      -0.142752563283724
0.09999999999987982       0.14999999999999877      -0.15634131809128027
0                         0.2                      -0.07326903136299491
0.04999999999994022       0.1999999999999994       -0.12869164964019209
0.09999999999988043       0.19999999999999876      -0.15188301107977561
0.14999999999987856       0                        -0.15724955323389903
0.19999999999987916       0                        -0.14828815500131876
0.14999999999987915       0.04999999999999909      -0.15926080275484833
0.19999999999987972       0.04999999999999878      -0.152503340667142
0.14999999999987976       0.09999999999999817      -0.16057474813139097
0.1999999999998803        0.09999999999999756      -0.1558947913249781
0                         0.25                     -0.02533927707533559
0.04999999999994051       0.24999999999999942      -0.1083571415484693
0.09999999999988102       0.24999999999999878      -0.1448460387316157
0                         0.3                      0.0278820658142021
0.04999999999994079       0.2999999999999994       -0.08332241164550418
0.09999999999988159       0.2999999999999988       -0.13564144893227806
0.1499999999998804        0.1499999999999982       -0.16093142394566534
0.19999999999988097       0.14999999999999758      -0.15828678503436786
0.14999999999988103       0.19999999999999818      -0.16013211896302137
0.19999999999988163       0.19999999999999762      -0.15962286718980453
0.24999999999987976       0                        -0.11666518217991682
0.29999999999988036       0                        -0.034029765733656625
0.24999999999988035       0.049999999999998476     -0.12691431130484646
0.299999999999881         0.04999999999999818      -0.056334171362319246
0.24999999999988093       0.09999999999999695      -0.1356904568004339
0.2999999999998816        0.09999999999999636      -0.0766509082850463
0                         0.35                     0.07743330859130994
0.049999999999941105      0.34999999999999937      -0.05718093691299395
0.09999999999988221       0.34999999999999876      -0.1254228854018698
0                         0.3999999999999999       0.11509969168721454
0.04999999999994141       0.39999999999999936      -0.035013884640997375
0.09999999999988282       0.39999999999999875      -0.11605586927707942
0.14999999999988162       0.2499999999999982       -0.1580896987628885
0.19999999999988222       0.2499999999999976       -0.15992209139074354
0.1499999999998822        0.2999999999999982       -0.15492743309324294
0.19999999999988283       0.2999999999999976       -0.15928401170242262
0.24999999999988157       0.14999999999999697      -0.14272444611371485
0.2999999999998822        0.14999999999999633      -0.0942407598773221
0.2499999999998822        0.19999999999999696      -0.14805012233116552
0.2999999999998828        0.19999999999999632      -0.10905151230810708
0.34999999999988096       0                        0.11700741142700344
0.39999999999988156       0                        0.2828240927234437
0.3499999999998816        0.049999999999997866     0.08342959023463883
0.39999999999988217       0.04999999999999756      0.2534165794034494
0.3499999999998822        0.09999999999999573      0.049819292867086334
0.3999999999998828        0.09999999999999512      0.22070535778246864
0                         0.4499999999999999       0.13569001060216673
0.04999999999994173       0.4499999999999993       -0.02154969372408817
0.09999999999988346       0.44999999999999873      -0.10961214076149998
0                         0.4999999999999999       0.13672471359208316
0.04999999999994204       0.49999999999999933      -0.019849437172224038
0.09999999999988408       0.4999999999999988       -0.10765508163271255
0.14999999999988278       0.34999999999999815      -0.15102388168840622
0.1999999999998834        0.34999999999999754      -0.15788545556054895
0.1499999999998834        0.39999999999999813      -0.14702010506350421
0.199999999999884         0.3999999999999975       -0.15598273877066976
0.24999999999988282       0.24999999999999697      -0.1518224474560404
0.29999999999988336       0.24999999999999634      -0.1213044695354841
0.2499999999998834        0.299999999999997        -0.15422733077737646
0.29999999999988397       0.2999999999999964       -0.1312546271007664
0.3499999999998828        0.14999999999999575      0.017511568178038044
0.39999999999988345       0.14999999999999516      0.18514039937175503
0.3499999999998834        0.19999999999999576      -0.013004916732335605
0.39999999999988406       0.1999999999999952       0.14662613087865198
0.44999999999988216       0                        0.38925622863565845
0.49999999999988276       0                        0.4342384534701722
0.4499999999998828        0.04999999999999725      0.3738662512206028
0.49999999999988337       0.049999999999996936     0.4287550991979894
0.4499999999998834        0.0999999999999945       0.355504196978812
0.499999999999884         0.09999999999999387      0.4222205969586055
0                         0.5499999999999998       0.1167667436349954
0.049999999999942354      0.5499999999999994       -0.030829165939034474
0.09999999999988471       0.5499999999999987       -0.11063726313213916
0                         0.5999999999999999       0.07690298039450606
0.04999999999994266       0.5999999999999993       -0.05217465407173517
0.09999999999988532       0.5999999999999988       -0.11753114824326928
0.149999999999884         0.4499999999999981       -0.14366967859632718
0.1999999999998846        0.4499999999999975       -0.1538779068478472
0.14999999999988464       0.49999999999999817      -0.14159561885099492
0.19999999999988521       0.49999999999999756      -0.15186246723298902
0.24999999999988398       0.349999999999997        -0.15543874059241783
0.2999999999998846        0.3499999999999963       -0.1390470242962366
0.24999999999988456       0.3999999999999969       -0.1556187650811278
0.29999999999988514       0.39999999999999625      -0.14470946261290038
0.34999999999988396       0.24999999999999578      -0.04164956268271207
0.3999999999998846        0.24999999999999523      0.10459251363361964
0.34999999999988457       0.2999999999999958       -0.06826646374301161
0.39999999999988517       0.2999999999999952       0.058961412248229664
0.44999999999988394       0.14999999999999453      0.3335104107995514
0.49999999999988454       0.14999999999999392      0.4139949097101049
0.4499999999998846        0.19999999999999457      0.3064369059329283
0.4999999999998851        0.19999999999999393      0.4027229468892695
0.5499999999998834        0                        0.44751531730076477
0.599999999999884         0                        0.4488261012122514
0.5499999999998839        0.049999999999996644     0.4462973569478875
0.5999999999998846        0.04999999999999635      0.4491766306504024
0.5499999999998846        0.09999999999999329      0.4452052326306594
0.5999999999998853        0.0999999999999927       0.4501725650400541
0                         0.6499999999999998       0.022504224203434134
0.04999999999994295       0.6499999999999992       -0.07886491592645709
0.0999999999998859        0.6499999999999987       -0.12636106178739231
0                         0.6999999999999997       -0.03536780399012434
0.04999999999994325       0.6999999999999992       -0.10486300644924376
0.0999999999998865        0.6999999999999986       -0.13504663334032174
0.14999999999988525       0.5499999999999982       -0.14106394092465274
0.19999999999988582       0.5499999999999975       -0.15015663833102047
0.14999999999988586       0.5999999999999981       -0.14187030369176948
0.1999999999998864        0.5999999999999974       -0.1488736004021453
0.24999999999988518       0.4499999999999969       -0.15494680959519216
0.29999999999988575       0.4499999999999963       -0.1482740447810137
0.24999999999988579       0.4999999999999969       -0.15363931158101327
0.29999999999988636       0.4999999999999963       -0.14991250307964119
0.3499999999998852        0.3499999999999958       -0.09217203744442891
0.3999999999998858        0.34999999999999526      0.011063631977020549
0.34999999999988574       0.3999999999999958       -0.11229786692584653
0.39999999999988634       0.3999999999999953       -0.03556158165496758
0.44999999999988516       0.24999999999999462      0.2719671246515354
0.4999999999998857        0.24999999999999395      0.38618292447526814
0.4499999999998857        0.2999999999999946       0.2272010509852882
0.4999999999998863        0.299999999999994        0.3603988637444528
0.5499999999998851        0.1499999999999933       0.4438960712670356
0.5999999999998857        0.14999999999999275      0.4516501121599454
0.5499999999998857        0.19999999999999335      0.44164000587335533
0.5999999999998863        0.1999999999999928       0.45326031379447085
0.6499999999998846        0                        0.44720438125758527
0.6999999999998852        0                        0.44559417900957937
0.6499999999998852        0.049999999999996034     0.44809662364295677
0.6999999999998858        0.049999999999995715     0.44661522318680835
0.6499999999998859        0.09999999999999207      0.44984913079015926
0.6999999999998865        0.09999999999999143      0.44858035497103005
0                         0.7499999999999998       -0.08440418616802195
0.04999999999994355       0.7499999999999991       -0.12554992690693256
0.0999999999998871        0.7499999999999987       -0.14216299499390841
0                         0.7999999999999997       -0.11881229351693172
0.04999999999994385       0.7999999999999992       -0.13961770830271644
0.0999999999998877        0.7999999999999986       -0.1472645312549516
0.14999999999988647       0.649999999999998        -0.14351011273515862
0.19999999999988702       0.6499999999999975       -0.1480487794203715
0.14999999999988706       0.699999999999998        -0.14544166974832742
0.19999999999988763       0.6999999999999974       -0.1476833894695016
0.24999999999988637       0.5499999999999969       -0.15195459732876426
0.2999999999998869        0.5499999999999963       -0.15000317301663657
0.24999999999988698       0.5999999999999969       -0.15017604529074088
0.2999999999998875        0.5999999999999963       -0.149084602016053
0.34999999999988635       0.44999999999999574      -0.12760239048691457
0.39999999999988695       0.44999999999999524      -0.07592199214602448
0.34999999999988696       0.4999999999999957       -0.1378103507419395
0.39999999999988756       0.49999999999999517      -0.10658740782581697
0.4499999999998863        0.3499999999999946       0.16966429301056193
0.49999999999988687       0.349999999999994        0.31972764221055827
0.44999999999988693       0.39999999999999464      0.10058704630736695
0.4999999999998875        0.39999999999999397      0.2577121867855519
0.5499999999998864        0.24999999999999337      0.437164780698096
0.5999999999998868        0.2499999999999928       0.4543725651627159
0.5499999999998869        0.2999999999999934       0.4277985645024808
0.5999999999998875        0.29999999999999283      0.45355072080646286
0.6499999999998863        0.1499999999999921       0.4523751328025974
0.6999999999998869        0.14999999999999147      0.4514338629536569
0.6499999999998869        0.19999999999999216      0.45549224319270926
0.6999999999998875        0.19999999999999152      0.4550599686208044
0.7499999999998858        0                        0.4452616325726638
0.7999999999998864        0                        0.4463850848795689
0.7499999999998864        0.049999999999995416     0.44626738613502515
0.7999999999998869        0.04999999999999512      0.4473146666842852
0.749999999999887         0.09999999999999083      0.44824362548589575
0.7999999999998875        0.09999999999999024      0.44919909137313807
0                         0.8499999999999996       -0.13924857603223065
0.04999999999994416       0.8499999999999992       -0.14800554638078905
0.09999999999988832       0.8499999999999985       -0.15046796377085012
0                         0.8999999999999997       -0.14959686681930257
0.04999999999994447       0.8999999999999991       -0.15202350983997528
0.09999999999988894       0.8999999999999986       -0.15137173307307777
0.14999999999988767       0.749999999999998        -0.14731605182321336
0.19999999999988824       0.7499999999999974       -0.1477848159891655
0.14999999999988828       0.799999999999998        -0.14893724702017033
0.19999999999988885       0.7999999999999975       -0.1482038056629165
0.2499999999998876        0.6499999999999968       -0.1485893438889308
0.29999999999988813       0.6499999999999964       -0.14775687116387054
0.2499999999998882        0.6999999999999968       -0.14744391082379454
0.29999999999988874       0.6999999999999963       -0.14655306864907416
0.3499999999998875        0.5499999999999957       -0.14350103668280292
0.3999999999998881        0.5499999999999952       -0.12663093039928425
0.3499999999998881        0.5999999999999958       -0.14581181709845842
0.3999999999998887        0.5999999999999952       -0.13763389104692675
0.4499999999998875        0.4499999999999946       0.026811182796440212
0.4999999999998881        0.44999999999999407      0.1709582747931969
0.4499999999998881        0.49999999999999467      -0.040015157095039444
0.49999999999988864       0.4999999999999941       0.07007634302956703
0.5499999999998875        0.3499999999999934       0.4090233478608721
0.5999999999998881        0.3499999999999929       0.4481118700598883
0.549999999999888         0.39999999999999347      0.3722644104364638
0.5999999999998886        0.3999999999999929       0.43159936350986816
0.6499999999998874        0.24999999999999217      0.45886855285648004
0.699999999999888         0.24999999999999156      0.45924973992681534
0.649999999999888         0.2999999999999922       0.4616975664040497
0.6999999999998886        0.2999999999999916       0.46347271031907883
0.7499999999998874        0.14999999999999086      0.45114573089432425
0.799999999999888         0.1499999999999903       0.4519917205561104
0.7499999999998881        0.19999999999999094      0.4548795371035579
0.7999999999998886        0.19999999999999035      0.45558856138014936
0.849999999999887         0                        0.44861142658459
0.8999999999998876        0                        0.450267063266651
0.8499999999998875        0.04999999999999482      0.44944111477030385
0.8999999999998881        0.04999999999999452      0.45097823593463254
0.8499999999998881        0.09999999999998964      0.4511608908424199
0.8999999999998887        0.09999999999998904      0.4524119676388479
0                         0.9499999999999997       -0.15338553443972014
0.04999999999994478       0.9499999999999992       -0.1518520747747623
0.09999999999988957       0.9499999999999986       -0.14795012883741826
0                         0.9999999999999997       -0.15085551381592252
0.04999999999994509       0.9999999999999991       -0.14393044150194986
0.09999999999989018       0.9999999999999987       -0.13292505059124946
0.1499999999998889        0.8499999999999981       -0.15002003875450526
0.19999999999988943       0.8499999999999974       -0.14840530417667386
0.1499999999998895        0.899999999999998        -0.14908235549676319
0.19999999999989004       0.8999999999999975       -0.14607443399723036
0.24999999999988876       0.7499999999999969       -0.14691610036093053
0.2999999999998893        0.7499999999999962       -0.1458532075364946
0.24999999999988937       0.7999999999999969       -0.14686563381578638
0.29999999999988985       0.7999999999999963       -0.14559200217432927
0.34999999999988873       0.6499999999999958       -0.14609450304637378
0.39999999999988933       0.6499999999999952       -0.1424884923211235
0.3499999999998893        0.6999999999999957       -0.14552742411078898
0.3999999999998899        0.6999999999999952       -0.14395617712421466
0.4499999999998887        0.5499999999999946       -0.08943784732616315
0.49999999999988926       0.549999999999994        -0.02110710483722386
0.44999999999988927       0.5999999999999945       -0.11956067983618006
0.49999999999988987       0.599999999999994        -0.0848760346841848
0.5499999999998886        0.4499999999999935       0.3054252463605503
0.5999999999998892        0.44999999999999285      0.39217107338079027
0.5499999999998892        0.49999999999999345      0.20193106978833067
0.5999999999998897        0.4999999999999928       0.3116562795172486
0.6499999999998886        0.34999999999999226      0.4623798127793235
0.6999999999998892        0.34999999999999165      0.4666442405980247
0.6499999999998891        0.3999999999999923       0.4565401780329194
0.6999999999998897        0.3999999999999917       0.4655641571416407
0.7499999999998886        0.249999999999991        0.45927503878635784
0.7999999999998892        0.24999999999999042      0.4597991723715485
0.7499999999998892        0.29999999999999105      0.46389041523339136
0.7999999999998898        0.2999999999999905       0.4641309792277314
0.8499999999998886        0.14999999999998967      0.45370656318256336
0.8999999999998892        0.14999999999998906      0.4544536638699317
0.8499999999998892        0.1999999999999897       0.45692700254691176
0.8999999999998898        0.19999999999998908      0.45682702957509935
0.9499999999998882        0                        0.44749162786309427
0.9999999999998888        0                        0.42855014649966683
0.9499999999998887        0.0499999999999942       0.4480524498535468
0.9999999999998893        0.04999999999999388      0.4288697252616377
0.9499999999998893        0.0999999999999884       0.448937659365343
0.9999999999998899        0.09999999999998777      0.42856055415813443
0                         1.0499999999999996       -0.13808244246281742
0.049999999999945394      1.049999999999999        -0.11920970942417287
0.09999999999989079       1.0499999999999985       -0.09115459889890337
0                         1.0999999999999996       -0.10371074374566785
0.049999999999945706      1.099999999999999        -0.059945850186439574
0.09999999999989141       1.0999999999999983       -7.666649686618779E-4
0.1499999999998901        0.949999999999998        -0.14225196633499623
0.19999999999989065       0.9499999999999975       -0.13557743621816107
0.14999999999989072       0.9999999999999981       -0.11820572216281237
0.19999999999989124       0.9999999999999976       -0.10149159214343986
0.24999999999988998       0.8499999999999969       -0.14658278684818535
0.29999999999989047       0.8499999999999963       -0.14499902002955306
0.2499999999998906        0.899999999999997        -0.14307629690586401
0.29999999999989113       0.8999999999999965       -0.1406752011072412
0.3499999999998899        0.7499999999999958       -0.14496715646871589
0.3999999999998905        0.7499999999999951       -0.1441206561444764
0.3499999999998905        0.7999999999999957       -0.14462625435601445
0.3999999999998911        0.7999999999999952       -0.14392617832318622
0.4499999999998899        0.6499999999999946       -0.1347496358027795
0.4999999999998904        0.649999999999994        -0.11980581727299673
0.4499999999998905        0.6999999999999946       -0.14094180008219442
0.49999999999989103       0.6999999999999941       -0.13528243386824243
0.5499999999998898        0.5499999999999935       0.07744243500065787
0.5999999999998903        0.5499999999999928       0.1820891757041065
0.5499999999998904        0.5999999999999934       -0.02965146405161912
0.5999999999998908        0.5999999999999929       0.04004533862192669
0.6499999999998898        0.4499999999999923       0.43515828531598105
0.6999999999998905        0.44999999999999174      0.4532591489895459
0.6499999999998904        0.4999999999999923       0.3788004785921547
0.6999999999998912        0.4999999999999918       0.41195873940506034
0.7499999999998898        0.34999999999999104      0.4678093307193526
0.7999999999998904        0.34999999999999043      0.4675687373061098
0.7499999999998903        0.39999999999999103      0.4682296174605528
0.7999999999998909        0.39999999999999036      0.467062208216151
0.8499999999998897        0.24999999999998979      0.4605405767105898
0.8999999999998903        0.24999999999998915      0.459018971015651
0.8499999999998904        0.29999999999998983      0.46384256576114047
0.8999999999998909        0.2999999999999892       0.45981502188185425
0.9499999999998898        0.14999999999998845      0.44990983493156705
0.9999999999998904        0.14999999999998784      0.4271220987115868
0.9499999999998904        0.1999999999999885       0.4504011398696734
0.999999999999891         0.1999999999999879       0.42339692262318657
1.0499999999998892        0                        0.36849927222454015
1.09999999999989          0                        0.23929270625467794
1.04999999999989          0.049999999999993584     0.3683858695970078
1.0999999999998904        0.049999999999993286     0.23863440718342235
1.0499999999998906        0.09999999999998717      0.36568844989249605
1.099999999999891         0.09999999999998657      0.233213963559196
0                         1.1499999999999995       -0.03117548942943185
0.049999999999946004      1.149999999999999        0.05023657778499477
0.09999999999989201       1.1499999999999986       0.14142758950036421
0                         1.1999999999999995       0.08627023268578546
0.0499999999999463        1.199999999999999        0.19358906834519976
0.0999999999998926        1.1999999999999986       0.2864955487736765
0.14999999999989133       1.049999999999998        -0.05523671056949568
0.19999999999989185       1.0499999999999976       -0.016746965580799425
0.14999999999989194       1.0999999999999979       0.06675959815441035
0.19999999999989246       1.0999999999999974       0.13008606778705534
0.2499999999998912        0.9499999999999971       -0.1291375712453725
0.2999999999998917        0.9499999999999964       -0.12438716458145642
0.24999999999989175       0.9999999999999969       -0.08582560240383522
0.2999999999998923        0.9999999999999962       -0.07504160588773295
0.34999999999989106       0.8499999999999959       -0.1438666825608429
0.39999999999989166       0.8499999999999952       -0.14319348749690175
0.3499999999998916        0.8999999999999959       -0.13928320161147328
0.39999999999989216       0.8999999999999952       -0.13898600582154236
0.44999999999989104       0.7499999999999946       -0.14295297457793685
0.49999999999989164       0.749999999999994        -0.14100132770771437
0.44999999999989165       0.7999999999999946       -0.14332353829101424
0.4999999999998922        0.799999999999994        -0.1425957153680479
0.549999999999891         0.6499999999999935       -0.09515568971875842
0.5999999999998915        0.6499999999999928       -0.061687649239459755
0.5499999999998916        0.6999999999999935       -0.12601067843715635
0.5999999999998922        0.6999999999999929       -0.11337857666983805
0.649999999999891         0.5499999999999923       0.26451345216397226
0.6999999999998918        0.5499999999999918       0.3135761370187331
0.6499999999998916        0.5999999999999923       0.10798482258581889
0.6999999999998924        0.5999999999999919       0.15612885156796807
0.7499999999998909        0.4499999999999911       0.45890967781778885
0.7999999999998915        0.4499999999999904       0.4558915419961913
0.7499999999998916        0.4999999999999911       0.42292217634380636
0.799999999999892         0.49999999999999045      0.41648532172366615
0.8499999999998911        0.3499999999999898       0.46541257093101795
0.8999999999998916        0.34999999999998926      0.4568777226342411
0.8499999999998915        0.3999999999999898       0.4612359109128561
0.8999999999998922        0.3999999999999893       0.44428308546605566
0.9499999999998909        0.24999999999998856      0.4493820445630941
0.9999999999998915        0.24999999999998798      0.41540427546017095
0.9499999999998915        0.2999999999999886       0.44456913347480076
0.9999999999998921        0.29999999999998805      0.39922224447855376
1.049999999999891         0.14999999999998725      0.35950115849774844
1.0999999999998915        0.14999999999998664      0.22197675254128552
1.0499999999998915        0.1999999999999873       0.3479093712964149
1.099999999999892         0.1999999999999867       0.20310856252503878
1.1499999999998907        0                        0.06599809773726832
1.1999999999998912        0                        -0.06717160126337371
1.149999999999891         0.04999999999999299      0.06516900903051799
1.1999999999998918        0.04999999999999269      -0.06771142663894764
1.1499999999998916        0.09999999999998598      0.05974118005512836
1.1999999999998923        0.09999999999998538      -0.07063423106275601
0                         1.2499999999999996       0.22337377473602532
0.049999999999946615      1.2499999999999991       0.3189448075391924
0.09999999999989323       1.2499999999999987       0.3828096823841082
0                         1.2999999999999994       0.3342924721539576
0.04999999999994692       1.299999999999999        0.39648648832958855
0.09999999999989384       1.2999999999999985       0.42990888965345203
0.14999999999989252       1.149999999999998        0.2249177313120268
0.19999999999989304       1.1499999999999975       0.28891497679752276
0.1499999999998931        1.199999999999998        0.35243510117732396
0.1999999999998936        1.1999999999999975       0.3938545927740314
0.24999999999989236       1.0499999999999967       0.016886194941663407
0.2999999999998929        1.0499999999999963       0.03827790073920288
0.24999999999989297       1.0999999999999968       0.17846719941393888
0.2999999999998935        1.099999999999996        0.20618408306551572
0.34999999999989223       0.949999999999996        -0.12251362631076404
0.3999999999998928        0.9499999999999953       -0.12380206236048392
0.34999999999989284       0.9999999999999958       -0.07225444586206241
0.39999999999989333       0.9999999999999953       -0.0781994063272471
0.44999999999989215       0.8499999999999946       -0.14285369114040233
0.4999999999998927        0.8499999999999941       -0.14264907016637868
0.4499999999998927        0.8999999999999947       -0.1395394357124112
0.4999999999998932        0.8999999999999941       -0.1404813632248062
0.5499999999998921        0.7499999999999936       -0.13791064996548347
0.5999999999998927        0.7499999999999929       -0.13375952975850425
0.5499999999998928        0.7999999999999935       -0.14157136208772944
0.5999999999998933        0.7999999999999929       -0.14025812987895186
0.649999999999892         0.6499999999999924       -0.02554768933107297
0.6999999999998927        0.6499999999999918       0.002841091899920617
0.6499999999998926        0.6999999999999923       -0.09953566426299833
0.6999999999998929        0.6999999999999917       -0.08840459983653302
0.7499999999998921        0.5499999999999912       0.3310757897801687
0.7999999999998925        0.5499999999999905       0.3201095520002934
0.7499999999998926        0.5999999999999912       0.1748378171251609
0.7999999999998929        0.5999999999999905       0.16233027775202033
0.849999999999892         0.44999999999998985      0.4428313259525795
0.8999999999998927        0.4499999999999893       0.4106390655315952
0.8499999999998926        0.4999999999999899       0.3907337862566643
0.8999999999998931        0.49999999999998934      0.3360266615481416
0.949999999999892         0.34999999999998865      0.4318832852807346
0.9999999999998926        0.34999999999998804      0.36867789910157023
0.9499999999998927        0.3999999999999887       0.40266552674763334
0.9999999999998932        0.39999999999998803      0.3145181781529533
1.0499999999998921        0.24999999999998737      0.32793527434106656
1.0999999999998926        0.24999999999998676      0.17426204066909418
1.0499999999998928        0.29999999999998744      0.29503740204489093
1.0999999999998933        0.29999999999998683      0.13351173090254975
1.149999999999892         0.14999999999998603      0.0491310450249353
1.1999999999998927        0.14999999999998545      -0.07608498310490375
1.1499999999998924        0.1999999999999861       0.03268096170545591
1.1999999999998932        0.19999999999998552      -0.08408377114701457
1.2499999999998916        0                        -0.13011229999996227
1.2999999999998924        0                        -0.15156818009840026
1.2499999999998923        0.049999999999992384     -0.13038627105990921
1.2999999999998928        0.04999999999999207      -0.15173698261169494
1.249999999999893         0.09999999999998477      -0.13132452671599265