% Model:              Baseline_Circular_BIG_1.mph
% Version:            COMSOL 6.0.0.405
% Date:               May 22 2024, 19:43
% Dimension:          2
% Nodes:              40401
% Expressions:        1
% Description:        Surface
% X                       Y                        Dependent variable Phiw
0                         0                        0.7674993042803301
0.04999999999993898       0                        0.7720366194537216
0.09999999999987796       0                        0.7732132533971802
0                         0.05                     0.7596675762637034
0.04999999999993929       0.0499999999999997       0.7694412217629537
0.09999999999987857       0.04999999999999939      0.7729791947729969
0                         0.1                      0.744378476728091
0.0499999999999396        0.0999999999999994       0.7638352510604234
0.0999999999998792        0.09999999999999878      0.7715140371856339
0                         0.15000000000000002      0.7184083101219968
0.04999999999993991       0.14999999999999938      0.7537812054890729
0.09999999999987982       0.14999999999999877      0.7682682041168464
0                         0.2                      0.6797024899437873
0.04999999999994022       0.1999999999999994       0.7379790411710783
0.09999999999988043       0.19999999999999876      0.7627791908326561
0.14999999999987856       0                        0.7705120600093595
0.19999999999987916       0                        0.758174872923156
0.14999999999987915       0.04999999999999909      0.771858591420586
0.19999999999987972       0.04999999999999878      0.7621583141337778
0.14999999999987976       0.09999999999999817      0.7725677524691414
0.1999999999998803        0.09999999999999756      0.7654604021400062
0                         0.25                     0.6295195195237042
0.04999999999994051       0.24999999999999942      0.7160958015153207
0.09999999999988102       0.24999999999999878      0.7548950379373742
0                         0.3                      0.5744380873161301
0.04999999999994079       0.2999999999999994       0.6898254443316442
0.09999999999988159       0.2999999999999988       0.7451071795488063
0.1499999999998804        0.1499999999999982       0.7724154088566701
0.19999999999988097       0.14999999999999758      0.7679219137636597
0.14999999999988103       0.19999999999999818      0.7712476373433774
0.19999999999988163       0.19999999999999762      0.7695090467370593
0.24999999999987976       0                        0.7218654158699582
0.29999999999988036       0                        0.6333482171187511
0.24999999999988035       0.049999999999998476     0.7322793052387497
0.299999999999881         0.04999999999999818      0.6561609444771319
0.24999999999988093       0.09999999999999695      0.7414414544194161
0.2999999999998816        0.09999999999999636      0.6772846390779325
0                         0.35                     0.5235571224113276
0.049999999999941105      0.34999999999999937      0.6628686509848085
0.09999999999988221       0.34999999999999876      0.7346404182965328
0                         0.3999999999999999       0.4851859309046614
0.04999999999994141       0.39999999999999936      0.6403846033288143
0.09999999999988282       0.39999999999999875      0.7254095816324286
0.14999999999988162       0.2499999999999982       0.7690263758262659
0.19999999999988222       0.2499999999999976       0.7702652166339866
0.1499999999998822        0.2999999999999982       0.7659217216214178
0.19999999999988283       0.2999999999999976       0.7703097633609851
0.24999999999988157       0.14999999999999697      0.74908336314445
0.2999999999998822        0.14999999999999633      0.6959695378395366
0.2499999999998822        0.19999999999999696      0.7552443522385581
0.2999999999998828        0.19999999999999632      0.7121571772035011
0.34999999999988096       0                        0.4755701304304244
0.39999999999988156       0                        0.30271659906274423
0.3499999999998816        0.049999999999997866     0.509911016968451
0.39999999999988217       0.04999999999999756      0.33302510219440357
0.3499999999998822        0.09999999999999573      0.5446579224366483
0.3999999999998828        0.09999999999999512      0.3670764061606961
0                         0.4499999999999999       0.46456737422958444
0.04999999999994173       0.4499999999999993       0.6271442650154804
0.09999999999988346       0.44999999999999873      0.7195072608713602
0                         0.4999999999999999       0.46418437776912164
0.04999999999994204       0.49999999999999933      0.6262045930564465
0.09999999999988408       0.4999999999999988       0.7184776040600517
0.14999999999988278       0.34999999999999815      0.7623500759582427
0.1999999999998834        0.34999999999999754      0.7698291904481658
0.1499999999998834        0.39999999999999813      0.7589714493610833
0.199999999999884         0.3999999999999975       0.7690713436711252
0.24999999999988282       0.24999999999999697      0.7600849158968335
0.29999999999988336       0.24999999999999634      0.7260616157884212
0.2499999999998834        0.299999999999997        0.7637897088747696
0.29999999999988397       0.2999999999999964       0.7379214898570456
0.3499999999998828        0.14999999999999575      0.5784605919790514
0.39999999999988345       0.14999999999999516      0.404407685552729
0.3499999999998834        0.19999999999999576      0.6108192405697692
0.39999999999988406       0.1999999999999952       0.44510591414723577
0.44999999999988216       0                        0.18957326507860162
0.49999999999988276       0                        0.138675254126914
0.4499999999998828        0.04999999999999725      0.2058956862410933
0.49999999999988337       0.049999999999996936     0.14505620735770666
0.4499999999998834        0.0999999999999945       0.22567726909817576
0.499999999999884         0.09999999999999387      0.1530047018219383
0                         0.5499999999999998       0.4854349292612605
0.049999999999942354      0.5499999999999994       0.6384323061333692
0.09999999999988471       0.5499999999999987       0.7227136414846218
0                         0.5999999999999999       0.5271386492869115
0.04999999999994266       0.5999999999999993       0.6614090138234248
0.09999999999988532       0.5999999999999988       0.7310813998694028
0.149999999999884         0.4499999999999981       0.7565346495226684
0.1999999999998846        0.4499999999999975       0.7683088027141476
0.14999999999988464       0.49999999999999817      0.755625094685737
0.19999999999988521       0.49999999999999756      0.7677765436774138
0.24999999999988398       0.349999999999997        0.766519403947884
0.2999999999998846        0.3499999999999963       0.7478504738498456
0.24999999999988456       0.3999999999999969       0.768403633137141
0.29999999999988514       0.39999999999999625      0.7558225853584416
0.34999999999988396       0.24999999999999578      0.6416406039011685
0.3999999999998846        0.24999999999999523      0.48973135782191224
0.34999999999988457       0.2999999999999958       0.6707446798622871
0.39999999999988517       0.2999999999999952       0.5383399787510014
0.44999999999988394       0.14999999999999453      0.24957094693247983
0.49999999999988454       0.14999999999999392      0.16315974208694134
0.4499999999998846        0.19999999999999457      0.279023049275672
0.4999999999998851        0.19999999999999393      0.1768814221006866
0.5499999999998834        0                        0.12052744695815731
0.599999999999884         0                        0.11547597598342421
0.5499999999998839        0.049999999999996644     0.12257923850599639
0.5999999999998846        0.04999999999999635      0.11588814350729998
0.5499999999998846        0.09999999999999329      0.125037573441209
0.5999999999998853        0.0999999999999927       0.11619592840414993
0                         0.6499999999999998       0.583776202133941
0.04999999999994295       0.6499999999999992       0.6899602387970308
0.0999999999998859        0.6499999999999987       0.7414596281177784
0                         0.6999999999999997       0.6440741937630324
0.04999999999994325       0.6999999999999992       0.7178483967339317
0.0999999999998865        0.6999999999999986       0.7515882221036754
0.14999999999988525       0.5499999999999982       0.7564388152512806
0.19999999999988582       0.5499999999999975       0.7676131435959328
0.14999999999988586       0.5999999999999981       0.7586651596620084
0.1999999999998864        0.5999999999999974       0.7678234072840663
0.24999999999988518       0.4499999999999969       0.7695690375763128
0.29999999999988575       0.4499999999999963       0.7617938767577399
0.24999999999988579       0.4999999999999969       0.770155748416275
0.29999999999988636       0.4999999999999963       0.7658372034409684
0.3499999999998852        0.3499999999999958       0.6974048105682572
0.3999999999998858        0.34999999999999526      0.5895566255838935
0.34999999999988574       0.3999999999999958       0.7204807595593307
0.39999999999988634       0.3999999999999953       0.6397605930974084
0.44999999999988516       0.24999999999999462      0.3163489521226495
0.4999999999998857        0.24999999999999395      0.1963991420523081
0.4499999999998857        0.2999999999999946       0.3644372564662304
0.4999999999998863        0.299999999999994        0.2256909141739338
0.5499999999998851        0.1499999999999933       0.12824793947121851
0.5999999999998857        0.14999999999999275      0.11656779047303796
0.5499999999998857        0.19999999999999335      0.13294940541710937
0.5999999999998863        0.1999999999999928       0.11736403809104172
0.6499999999998846        0                        0.11450777854031371
0.6999999999998852        0                        0.11467140565509211
0.6499999999998852        0.049999999999996034     0.11430903143415398
0.6999999999998858        0.049999999999995715     0.11427913165552586
0.6499999999998859        0.09999999999999207      0.11379595412376814
0.6999999999998865        0.09999999999999143      0.11349168437898524
0                         0.7499999999999998       0.6954662487000076
0.04999999999994355       0.7499999999999991       0.7402267072740616
0.0999999999998871        0.7499999999999987       0.7598447810689305
0                         0.7999999999999997       0.7318852118259029
0.04999999999994385       0.7999999999999992       0.7555537698411624
0.0999999999998877        0.7999999999999986       0.7655820653038118
0.14999999999988647       0.649999999999998        0.7616641562927049
0.19999999999988702       0.6499999999999975       0.7683139474170976
0.14999999999988706       0.699999999999998        0.7647337667451319
0.19999999999988763       0.6999999999999974       0.76893952453934
0.24999999999988637       0.5499999999999969       0.7703262066226815
0.2999999999998869        0.5499999999999963       0.7682160778308799
0.24999999999988698       0.5999999999999969       0.7702491650718857
0.2999999999998875        0.5999999999999963       0.7693424747475225
0.34999999999988635       0.44999999999999574      0.7388307814674425
0.39999999999988695       0.44999999999999524      0.6838386184639638
0.34999999999988696       0.4999999999999957       0.7520529061801354
0.39999999999988756       0.49999999999999517      0.718201437998842
0.4499999999998863        0.3499999999999946       0.42572982484450667
0.49999999999988687       0.349999999999994        0.27038670160514244
0.44999999999988693       0.39999999999999464      0.49892191346493714
0.4999999999998875        0.39999999999999397      0.3368921890997114
0.5499999999998864        0.24999999999999337      0.14042761085244315
0.5999999999998868        0.2499999999999928       0.11923156208384275
0.5499999999998869        0.2999999999999934       0.15336673651147986
0.5999999999998875        0.29999999999999283      0.12362472937308161
0.6499999999998863        0.1499999999999921       0.11306111290473778
0.6999999999998869        0.14999999999999147      0.1123712218045411
0.6499999999998869        0.19999999999999216      0.11229922884012122
0.6999999999998875        0.19999999999999152      0.11104628951722881
0.7499999999998858        0                        0.11469262291845891
0.7999999999998864        0                        0.1143902697897933
0.7499999999998864        0.049999999999995416     0.11425587330587962
0.7999999999998869        0.04999999999999512      0.1139743299233248
0.749999999999887         0.09999999999999083      0.11339954985669386
0.7999999999998875        0.09999999999999024      0.1131558682047814
0                         0.8499999999999996       0.7537317968586509
0.04999999999994416       0.8499999999999992       0.7645513567879535
0.09999999999988832       0.8499999999999985       0.7687243138725823
0                         0.8999999999999997       0.7646803427739459
0.04999999999994447       0.8999999999999991       0.7683443416968352
0.09999999999988894       0.8999999999999986       0.7686979714905888
0.14999999999988767       0.749999999999998        0.7673513323712267
0.19999999999988824       0.7499999999999974       0.7695509183954994
0.14999999999988828       0.799999999999998        0.76914182134601
0.19999999999988885       0.7999999999999975       0.7698362767820031
0.2499999999998876        0.6499999999999968       0.7700828736501749
0.29999999999988813       0.6499999999999964       0.7696848609664404
0.2499999999998882        0.6999999999999968       0.7699386486030181
0.29999999999988874       0.6999999999999963       0.7696420938773061
0.3499999999998875        0.5499999999999957       0.7605847040547263
0.3999999999998881        0.5499999999999952       0.7417426646007281
0.3499999999998881        0.5999999999999958       0.7654165197241539
0.3999999999998887        0.5999999999999952       0.7558629955050219
0.4499999999998875        0.4499999999999946       0.5770452805659902
0.4999999999998881        0.44999999999999407      0.4284942461168212
0.4499999999998881        0.49999999999999467      0.6482659126319004
0.49999999999988864       0.4999999999999941       0.5343923421835648
0.5499999999998875        0.3499999999999934       0.1762890556069546
0.5999999999998881        0.3499999999999929       0.13324175623940634
0.549999999999888         0.39999999999999347      0.21774520647965823
0.5999999999998886        0.3999999999999929       0.15453609424373985
0.6499999999998874        0.24999999999999217      0.1118597025090962
0.699999999999888         0.24999999999999156      0.10974371459349089
0.649999999999888         0.2999999999999922       0.1125699783007061
0.6999999999998886        0.2999999999999916       0.10901595538604204
0.7499999999998874        0.14999999999999086      0.11217512077320768
0.799999999999888         0.1499999999999903       0.11198862870494315
0.7499999999998881        0.19999999999999094      0.11068968436371035
0.7999999999998886        0.19999999999999035      0.11058951876895494
0.849999999999887         0                        0.1141220086194807
0.8999999999998876        0                        0.115569291751948
0.8499999999998875        0.04999999999999482      0.11375421860406941
0.8999999999998881        0.04999999999999452      0.11527093641599867
0.8499999999998881        0.09999999999998964      0.11304958659690004
0.8999999999998887        0.09999999999998904      0.11480340354297333
0                         0.9499999999999997       0.7681020680776033
0.04999999999994478       0.9499999999999992       0.7669642138077134
0.09999999999988957       0.9499999999999986       0.7633311839879675
0                         0.9999999999999997       0.7641411048256759
0.04999999999994509       0.9999999999999991       0.7567525300088
0.09999999999989018       0.9999999999999987       0.7452495652394512
0.1499999999998889        0.8499999999999981       0.7696440899213003
0.19999999999988943       0.8499999999999974       0.7690969443766832
0.1499999999998895        0.899999999999998        0.7672122709754561
0.19999999999989004       0.8999999999999975       0.7648611445234107
0.24999999999988876       0.7499999999999969       0.7698484034613683
0.2999999999998893        0.7499999999999962       0.7694590185985032
0.24999999999988937       0.7999999999999969       0.7695223977909214
0.29999999999988985       0.7999999999999963       0.7689333322613876
0.34999999999988873       0.6499999999999958       0.7677574169344902
0.39999999999988933       0.6499999999999952       0.7632899262098853
0.3499999999998893        0.6999999999999957       0.7686511542217419
0.3999999999998899        0.6999999999999952       0.7666439182663392
0.4499999999998887        0.5499999999999946       0.7019041416681789
0.49999999999988926       0.549999999999994        0.6304958165953433
0.44999999999988927       0.5999999999999945       0.7358316975749264
0.49999999999988987       0.599999999999994        0.6987921077647511
0.5499999999998886        0.4499999999999935       0.2897589050270591
0.5999999999998892        0.44999999999999285      0.19931018329868957
0.5499999999998892        0.49999999999999345      0.39873904871663585
0.5999999999998897        0.4999999999999928       0.28560716522130686
0.6499999999998886        0.34999999999999226      0.11605046702370832
0.6999999999998892        0.34999999999999165      0.10997103950813525
0.6499999999998891        0.3999999999999923       0.12668562344761045
0.6999999999998897        0.3999999999999917       0.115824818641879
0.7499999999998886        0.249999999999991        0.10913114824502174
0.7999999999998892        0.24999999999999042      0.10916657623529916
0.7499999999998892        0.29999999999999105      0.10796341718737566
0.7999999999998898        0.2999999999999905       0.10823375938491979
0.8499999999998886        0.14999999999998967      0.11207956896497179
0.8999999999998892        0.14999999999998906      0.11428857869338875
0.8499999999998892        0.1999999999999897       0.11100798420015688
0.8999999999998898        0.19999999999998908      0.11401482260305307
0.9499999999998882        0                        0.12259551681368662
0.9999999999998888        0                        0.1468974638273522
0.9499999999998887        0.0499999999999942       0.12240000313002634
0.9999999999998893        0.04999999999999388      0.1468958351852113
0.9499999999998893        0.0999999999999884       0.12243197809270391
0.9999999999998899        0.09999999999998777      0.14806952565665615
0                         1.0499999999999996       0.7488313364476458
0.049999999999945394      1.049999999999999        0.7286223792078478
0.09999999999989079       1.0499999999999985       0.699287464703885
0                         1.0999999999999996       0.710857142164412
0.049999999999945706      1.099999999999999        0.6648985877874385
0.09999999999989141       1.0999999999999983       0.6036899087269383
0.1499999999998901        0.949999999999998        0.7578299442997642
0.19999999999989065       0.9499999999999975       0.7513543321872945
0.14999999999989072       0.9999999999999981       0.7300835810014951
0.19999999999989124       0.9999999999999976       0.7130738901384622
0.24999999999988998       0.8499999999999969       0.7680985264449043
0.29999999999989047       0.8499999999999963       0.7671548800440897
0.2499999999998906        0.899999999999997        0.7624368056989175
0.29999999999989113       0.8999999999999965       0.7605873877541113
0.3499999999998899        0.7499999999999958       0.7688269653610609
0.3999999999998905        0.7499999999999951       0.7678877354599539
0.3499999999998905        0.7999999999999957       0.768374220611068
0.3999999999998911        0.7999999999999952       0.7678588036628535
0.4499999999998899        0.6499999999999946       0.7542101940385941
0.4999999999998904        0.649999999999994        0.7375899293900683
0.4499999999998905        0.6999999999999946       0.7628182010287521
0.49999999999989103       0.6999999999999941       0.7560809472768846
0.5499999999998898        0.5499999999999935       0.52875105417314
0.5999999999998903        0.5499999999999928       0.42114054935276873
0.5499999999998904        0.5999999999999934       0.641052295093305
0.5999999999998908        0.5999999999999929       0.5689531106769141
0.6499999999998898        0.4499999999999923       0.15347913814832978
0.6999999999998905        0.44999999999999174      0.1335466268517044
0.6499999999998904        0.4999999999999923       0.21577168748195047
0.6999999999998912        0.4999999999999918       0.18083622314951317
0.7499999999998898        0.34999999999999104      0.10812672183865153
0.7999999999998904        0.34999999999999043      0.10882908201365714
0.7499999999998903        0.39999999999999103      0.1124408087006531
0.7999999999998909        0.39999999999999036      0.11401841561278216
0.8499999999998897        0.24999999999998979      0.11013334280348057
0.8999999999998903        0.24999999999998915      0.11451058672804929
0.8499999999998904        0.29999999999998983      0.11018003125542858
0.8999999999998909        0.2999999999999892       0.11700649380403474
0.9499999999998898        0.14999999999998845      0.12293589242105175
0.9999999999998904        0.14999999999998784      0.15092514196290774
0.9499999999998904        0.1999999999999885       0.12449017352991668
0.999999999999891         0.1999999999999879       0.15662746351558535
1.0499999999998892        0                        0.21329112687029414
1.09999999999989          0                        0.34949614878176444
1.04999999999989          0.049999999999993584     0.2136733421784533
1.0999999999998904        0.049999999999993286     0.35036993383718595
1.0499999999998906        0.09999999999998717      0.21717285794560903
1.099999999999891         0.09999999999998657      0.3565126372052225
0                         1.1499999999999995       0.6337903585137875
0.049999999999946004      1.149999999999999        0.5494088822333981
0.09999999999989201       1.1499999999999986       0.455556789863319
0                         1.1999999999999995       0.5111468546668307
0.0499999999999463        1.199999999999999        0.4002508872201459
0.0999999999998926        1.1999999999999986       0.3042507615042145
0.14999999999989133       1.049999999999998        0.6622678735176736
0.19999999999989185       1.0499999999999976       0.6229843365098742
0.14999999999989194       1.0999999999999979       0.5344579314194039
0.19999999999989246       1.0999999999999974       0.46990131702324006
0.2499999999998912        0.9499999999999971       0.7451942011495741
0.2999999999998917        0.9499999999999964       0.7408734148255274
0.24999999999989175       0.9999999999999969       0.697363313171835
0.2999999999998923        0.9999999999999962       0.6868675741396665
0.34999999999989106       0.8499999999999959       0.766531371164793
0.39999999999989166       0.8499999999999952       0.7662754258333697
0.3499999999998916        0.8999999999999959       0.7597725634128495
0.39999999999989216       0.8999999999999952       0.7601032517281349
0.44999999999989104       0.7499999999999946       0.7663535230105031
0.49999999999989164       0.749999999999994        0.7638377845955749
0.44999999999989165       0.7999999999999946       0.7672684978126387
0.4999999999998922        0.799999999999994        0.7664248842807448
0.549999999999891         0.6499999999999935       0.7111025119618603
0.5999999999998915        0.6499999999999928       0.6758368219677534
0.5499999999998916        0.6999999999999935       0.7455895205802748
0.5999999999998922        0.6999999999999929       0.7317340254100003
0.649999999999891         0.5499999999999923       0.3362993743764991
0.6999999999998918        0.5499999999999918       0.2855918469958842
0.6499999999998916        0.5999999999999923       0.4989935484554143
0.6999999999998924        0.5999999999999919       0.44942723449087335
0.7499999999998909        0.4499999999999911       0.12714759639977682
0.7999999999998915        0.4499999999999904       0.13051876245864644
0.7499999999998916        0.4999999999999911       0.16911209839891653
0.799999999999892         0.49999999999999045      0.17583395528476017
0.8499999999998911        0.3499999999999898       0.11258807792009164
0.8999999999998916        0.34999999999998926      0.1238531764508935
0.8499999999998915        0.3999999999999898       0.12138135070117492
0.8999999999998922        0.3999999999999893       0.14097087643541734
0.9499999999998909        0.24999999999998856      0.12813656020732067
0.9999999999998915        0.24999999999998798      0.16716318557897794
0.9499999999998915        0.2999999999999886       0.13616782161530364
0.9999999999998921        0.29999999999998805      0.18645137564517017
1.049999999999891         0.14999999999998725      0.2246992565510983
1.0999999999998915        0.14999999999998664      0.3689785227911291
1.0499999999998915        0.1999999999999873       0.23816816420765888
1.099999999999892         0.1999999999999867       0.38957303977810753
1.1499999999998907        0                        0.5298829342539438
1.1999999999998912        0                        0.6695711115375885
1.149999999999891         0.04999999999999299      0.5308677597521697
1.1999999999998918        0.04999999999999269      0.6701993141899802
1.1499999999998916        0.09999999999998598      0.5369159792818047
1.1999999999998923        0.09999999999998538      0.6736231448210265
0                         1.2499999999999996       0.3685401719009269
0.049999999999946615      1.2499999999999991       0.2690110280456519
0.09999999999989323       1.2499999999999987       0.2018409620252571
0                         1.2999999999999994       0.25219606141542483
0.04999999999994692       1.299999999999999        0.1858823868301093
0.09999999999989384       1.2999999999999985       0.14912067080410962
0.14999999999989252       1.149999999999998        0.3698966507168068
0.19999999999989304       1.1499999999999975       0.30436983652293254
0.1499999999998931        1.199999999999998        0.23587438374579364
0.1999999999998936        1.1999999999999975       0.19279280271112845
0.24999999999989236       1.0499999999999967       0.58898519300827
0.2999999999998929        1.0499999999999963       0.5677463979352528
0.24999999999989297       1.0999999999999968       0.42089145359202584
0.2999999999998935        1.099999999999996        0.393233217711485
0.34999999999989223       0.949999999999996        0.7396270180496763
0.3999999999998928        0.9499999999999953       0.7417534423941737
0.34999999999989284       0.9999999999999958       0.6847528079443006
0.39999999999989333       0.9999999999999953       0.6917588585931232
0.44999999999989215       0.8499999999999946       0.7662871176025441
0.4999999999998927        0.8499999999999941       0.7663797590736605
0.4499999999998927        0.8999999999999947       0.7613369940687208
0.4999999999998932        0.8999999999999941       0.7629889364954506
0.5499999999998921        0.7499999999999936       0.7600668922842542
0.5999999999998927        0.7499999999999929       0.7552041953734862
0.5499999999998928        0.7999999999999935       0.7651977708818712
0.5999999999998933        0.7999999999999929       0.763632107175302
0.649999999999892         0.6499999999999924       0.6381435290142332
0.6999999999998927        0.6499999999999918       0.608619296412047
0.6499999999998926        0.6999999999999923       0.7168037465603836
0.6999999999998929        0.6999999999999917       0.704840003725041
0.7499999999998921        0.5499999999999912       0.2673492177363257
0.7999999999998925        0.5499999999999905       0.2785143689484622
0.7499999999998926        0.5999999999999912       0.430030664541012
0.7999999999998929        0.5999999999999905       0.4426294387450408
0.849999999999892         0.44999999999998985      0.14502661104879483
0.8999999999998927        0.4499999999999893       0.17971449349342472
0.8499999999998926        0.4999999999999899       0.20290152569145867
0.8999999999998931        0.49999999999998934      0.259881112671729
0.949999999999892         0.34999999999998865      0.15266406371200217
0.9999999999998926        0.34999999999998804      0.22064551194777196
0.9499999999998927        0.3999999999999887       0.18625805455769062
0.9999999999998932        0.39999999999998803      0.27893949772819676
1.0499999999998921        0.24999999999998737      0.26055215681360394
1.0999999999998926        0.24999999999998676      0.4206224854328071
1.0499999999998928        0.29999999999998744      0.29637083646620743
1.0999999999998933        0.29999999999998683      0.46400732623330276
1.149999999999892         0.14999999999998603      0.5486058564545719
1.1999999999998927        0.14999999999998545      0.6799783183264502
1.1499999999998924        0.1999999999999861       0.5665752526446255
1.1999999999998932        0.19999999999998552      0.6892561380112241
1.2499999999998916        0                        0.7379178122923442
1.2999999999998924        0                        0.7633714075205303
1.2499999999998923        0.049999999999992384     0.7382046747035773
1.2999999999998928        0.04999999999999207      0.7634676807456401
1.249999999999893         0.09999999999998477      0.7395188062102402
1.2999999999998935        0.09999999999998414      0.7638336289102277
0                         1.3499999999999994       0.18128346079641844
0.04999999999994723       1.349999999999999        0.14395695280404314
0.09999999999989446       1.3499999999999985       0.1259831055039495
0                         1.3999999999999995       0.1443168724895984
0.049999999999947545      1.399999999999999        0.12523604327475465