% Model:              Baseline_Circular_BIG_.5.mph
% Version:            COMSOL 6.0.0.405
% Date:               Jun 29 2024, 12:27
% Dimension:          2
% Nodes:              40401
% Expressions:        1
% Description:        Surface
% X                       Y                        Color
0                         0                        0.4142510879150317
0.04999999999993898       0                        0.18523325163693616
0.09999999999987796       0                        0.12000450683380233
0                         0.05                     0.17346803404255684
0.04999999999993929       0.0499999999999997       0.5144963711842893
0.09999999999987857       0.04999999999999939      0.1241201075498225
0                         0.1                      0.12000215785453856
0.0499999999999396        0.0999999999999994       0.13796252773553577
0.0999999999998792        0.09999999999999878      0.1391638759189505
0                         0.15000000000000002      0.2199652124074225
0.04999999999993991       0.14999999999999938      1.1079200233530608
0.09999999999987982       0.14999999999999877      0.7689605007222555
0                         0.2                      0.12676237209084348
0.04999999999994022       0.1999999999999994       5.023782077728959
0.09999999999988043       0.19999999999999876      0.12000000025778268
0.14999999999987856       0                        0.12484902493763952
0.19999999999987916       0                        0.4389079257140895
0.14999999999987915       0.04999999999999909      0.4589467766098603
0.19999999999987972       0.04999999999999878      0.4386463610239791
0.14999999999987976       0.09999999999999817      0.25174337815419523
0.1999999999998803        0.09999999999999756      0.3172151635036431
0                         0.25                     1.1974532289236688
0.04999999999994051       0.24999999999999942      0.14501969421077757
0.09999999999988102       0.24999999999999878      0.13380368991853359
0                         0.3                      0.3806963904963992
0.04999999999994079       0.2999999999999994       0.1200389381235686
0.09999999999988159       0.2999999999999988       0.12040726507438544
0.1499999999998804        0.1499999999999982       0.12032856596229552
0.19999999999988097       0.14999999999999758      0.1538199673497975
0.14999999999988103       0.19999999999999818      0.12113992697008527
0.19999999999988163       0.19999999999999762      0.12000003763732028
0.24999999999987976       0                        0.45175136487061773
0.29999999999988036       0                        0.12001647559240404
0.24999999999988035       0.049999999999998476     0.12007735313328925
0.299999999999881         0.04999999999999818      0.3060479104133651
0.24999999999988093       0.09999999999999695      0.14287878432657
0.2999999999998816        0.09999999999999636      0.20006127467493168
0                         0.35                     0.13217065906775965
0.049999999999941105      0.34999999999999937      0.19658147433967968
0.09999999999988221       0.34999999999999876      0.13196183678872989
0                         0.3999999999999999       0.1201675948518178
0.04999999999994141       0.39999999999999936      0.12080808880528998
0.09999999999988282       0.39999999999999875      0.12000000000130116
0.14999999999988162       0.2499999999999982       0.12020483969924795
0.19999999999988222       0.2499999999999976       0.12026494853309459
0.1499999999998822        0.2999999999999982       0.7440149388667324
0.19999999999988283       0.2999999999999976       0.1400111541696632
0.24999999999988157       0.14999999999999697      0.12009598980664736
0.2999999999998822        0.14999999999999633      0.38008116422356625
0.2499999999998822        0.19999999999999696      0.4318289868901708
0.2999999999998828        0.19999999999999632      1.4344338085567299
0.34999999999988096       0                        0.20266922796150733
0.39999999999988156       0                        0.12000064039817601
0.3499999999998816        0.049999999999997866     0.8444234788032579
0.39999999999988217       0.04999999999999756      0.13325894345705225
0.3499999999998822        0.09999999999999573      2.279098079025274
0.3999999999998828        0.09999999999999512      0.3166912461034122
0                         0.4499999999999999       0.1264609241486682
0.04999999999994173       0.4499999999999993       0.1213278772045163
0.09999999999988346       0.44999999999999873      0.31256706449452665
0                         0.4999999999999999       0.12195655196056673
0.04999999999994204       0.49999999999999933      1.2959808542062414
0.09999999999988408       0.4999999999999988       0.12006290427172517
0.14999999999988278       0.34999999999999815      0.12000000000952374
0.1999999999998834        0.34999999999999754      0.12000054086482619
0.1499999999998834        0.39999999999999813      0.28655850375355363
0.199999999999884         0.3999999999999975       0.17233089384469163
0.24999999999988282       0.24999999999999697      0.18406211616557405
0.29999999999988336       0.24999999999999634      0.12227738053952404
0.2499999999998834        0.299999999999997        0.17113923849693846
0.29999999999988397       0.2999999999999964       0.1210305015024202
0.3499999999998828        0.14999999999999575      0.35490400258258814
0.39999999999988345       0.14999999999999516      0.2517344341479326
0.3499999999998834        0.19999999999999576      0.12174276985206152
0.39999999999988406       0.1999999999999952       0.133471135733469
0.44999999999988216       0                        1.2639079104243174
0.49999999999988276       0                        0.16442416620877587
0.4499999999998828        0.04999999999999725      0.12000000001919824
0.49999999999988337       0.049999999999996936     0.12143140837337095
0.4499999999998834        0.0999999999999945       0.12044152746263968
0.499999999999884         0.09999999999999387      0.17882477064730928
0                         0.5499999999999998       0.1784411898104912
0.049999999999942354      0.5499999999999994       0.12011450851874517
0.09999999999988471       0.5499999999999987       0.12000000025620765
0                         0.5999999999999999       0.9434883715629763
0.04999999999994266       0.5999999999999993       0.12102989520007465
0.09999999999988532       0.5999999999999988       0.1393235761324556
0.149999999999884         0.4499999999999981       0.121236874271917
0.1999999999998846        0.4499999999999975       0.12227310528961846
0.14999999999988464       0.49999999999999817      0.13633163884936939
0.19999999999988521       0.49999999999999756      0.12024451796091365
0.24999999999988398       0.349999999999997        0.1211099223019414
0.2999999999998846        0.3499999999999963       0.7932429789268951
0.24999999999988456       0.3999999999999969       0.12037424338534823
0.29999999999988514       0.39999999999999625      3.411176477298719
0.34999999999988396       0.24999999999999578      0.12714310476174456
0.3999999999998846        0.24999999999999523      0.12177742250610585
0.34999999999988457       0.2999999999999958       0.12000351551781346
0.39999999999988517       0.2999999999999952       0.1206498108344181
0.44999999999988394       0.14999999999999453      0.2091417628001245
0.49999999999988454       0.14999999999999392      6.035081310293638
0.4499999999998846        0.19999999999999457      0.12013152906653765
0.4999999999998851        0.19999999999999393      0.1253342164821866
0.5499999999998834        0                        0.1573283636299137
0.599999999999884         0                        0.12000085401323242
0.5499999999998839        0.049999999999996644     0.6024908431922937
0.5999999999998846        0.04999999999999635      0.12031490250373204
0.5499999999998846        0.09999999999999329      0.12388510458025173
0.5999999999998853        0.0999999999999927       0.12007734809270047
0                         0.6499999999999998       0.1331917754954606
0.04999999999994295       0.6499999999999992       0.14668308483306283
0.0999999999998859        0.6499999999999987       0.35297683148470715
0                         0.6999999999999997       0.12358321597551127
0.04999999999994325       0.6999999999999992       0.1201469727624196
0.0999999999998865        0.6999999999999986       0.12009858522254097
0.14999999999988525       0.5499999999999982       0.18220444580781606
0.19999999999988582       0.5499999999999975       0.21303616234501738
0.14999999999988586       0.5999999999999981       0.12058748053292946
0.1999999999998864        0.5999999999999974       0.1377493966240163
0.24999999999988518       0.4499999999999969       0.15213644892600586
0.29999999999988575       0.4499999999999963       0.18521775466586576
0.24999999999988579       0.4999999999999969       0.1200000009143224
0.29999999999988636       0.4999999999999963       0.40955198566058304
0.3499999999998852        0.3499999999999958       0.12803281304365813
0.3999999999998858        0.34999999999999526      0.12000015624610962
0.34999999999988574       0.3999999999999958       0.1204010342835514
0.39999999999988634       0.3999999999999953       0.30412043765348395
0.44999999999988516       0.24999999999999462      0.14157755131149655
0.4999999999998857        0.24999999999999395      0.1200788784135939
0.4499999999998857        0.2999999999999946       0.12000209089342542
0.4999999999998863        0.299999999999994        0.12000436142035273
0.5499999999998851        0.1499999999999933       1.544526582129068
0.5999999999998857        0.14999999999999275      0.1436664878022666
0.5499999999998857        0.19999999999999335      0.12289810176999338
0.5999999999998863        0.1999999999999928       0.12133419893046034
0.6499999999998846        0                        14.693258547524273
0.6999999999998852        0                        0.12097006487888004
0.6499999999998852        0.049999999999996034     0.12023403317812872
0.6999999999998858        0.049999999999995715     0.23877634663950748
0.6499999999998859        0.09999999999999207      0.12000510111293661
0.6999999999998865        0.09999999999999143      0.12002760345777952
0                         0.7499999999999998       0.1442266238909879
0.04999999999994355       0.7499999999999991       0.1201132641126833
0.0999999999998871        0.7499999999999987       0.12023386664012838
0                         0.7999999999999997       0.1995394199937682
0.04999999999994385       0.7999999999999992       0.13439026838517115
0.0999999999998877        0.7999999999999986       0.12080252684886882
0.14999999999988647       0.649999999999998        0.1202070213756964
0.19999999999988702       0.6499999999999975       0.3494876673499326
0.14999999999988706       0.699999999999998        0.3561999505152633
0.19999999999988763       0.6999999999999974       0.12251124426572584
0.24999999999988637       0.5499999999999969       0.13451864277711637
0.2999999999998869        0.5499999999999963       0.12118195266560354
0.24999999999988698       0.5999999999999969       0.12130173635394487
0.2999999999998875        0.5999999999999963       0.7494772412940361
0.34999999999988635       0.44999999999999574      2.010089664465157
0.39999999999988695       0.44999999999999524      0.12102294390154172
0.34999999999988696       0.4999999999999957       0.9770759879381707
0.39999999999988756       0.49999999999999517      0.12219445949492376
0.4499999999998863        0.3499999999999946       0.12000422805847104
0.49999999999988687       0.349999999999994        0.1200341076321332
0.44999999999988693       0.39999999999999464      0.7823945613413089
0.4999999999998875        0.39999999999999397      0.18208826508956644
0.5499999999998864        0.24999999999999337      0.17314984727866573
0.5999999999998868        0.2499999999999928       0.12000017175034293
0.5499999999998869        0.2999999999999934       0.12004721716673496
0.5999999999998875        0.29999999999999283      0.40189886436974914
0.6499999999998863        0.1499999999999921       0.12411515750789233
0.6999999999998869        0.14999999999999147      0.2623539370780731
0.6499999999998869        0.19999999999999216      0.1483985105634515
0.6999999999998875        0.19999999999999152      0.12539425005572638
0.7499999999998858        0                        1.557910818173681
0.7999999999998864        0                        0.13415022988384218
0.7499999999998864        0.049999999999995416     0.4365996519641204
0.7999999999998869        0.04999999999999512      0.120105507829229
0.749999999999887         0.09999999999999083      0.12131562646066675
0.7999999999998875        0.09999999999999024      0.12422673804238735
0                         0.8499999999999996       0.1604656903284187
0.04999999999994416       0.8499999999999992       0.12008472560243987
0.09999999999988832       0.8499999999999985       0.23276937730191968
0                         0.8999999999999997       0.12111199683781491
0.04999999999994447       0.8999999999999991       2.4734322017351693
0.09999999999988894       0.8999999999999986       0.32973738522460927
0.14999999999988767       0.749999999999998        0.23872087690576743
0.19999999999988824       0.7499999999999974       0.18768793301227846
0.14999999999988828       0.799999999999998        0.12073978504681972
0.19999999999988885       0.7999999999999975       1.066934649306405
0.2499999999998876        0.6499999999999968       0.13813530577046185
0.29999999999988813       0.6499999999999964       0.12000000389432065
0.2499999999998882        0.6999999999999968       0.7763527857033228
0.29999999999988874       0.6999999999999963       0.1663800315857484
0.3499999999998875        0.5499999999999957       0.29518114512249316
0.3999999999998881        0.5499999999999952       0.2146128347305011
0.3499999999998881        0.5999999999999958       0.12290035368760818
0.3999999999998887        0.5999999999999952       0.3016641317461827
0.4499999999998875        0.4499999999999946       0.1315112958866494
0.4999999999998881        0.44999999999999407      0.12041860447273571
0.4499999999998881        0.49999999999999467      1.547914994985946
0.49999999999988864       0.4999999999999941       0.12066250943550172
0.5499999999998875        0.3499999999999934       0.12001431248640493
0.5999999999998881        0.3499999999999929       0.12307352733826099
0.549999999999888         0.39999999999999347      0.12486721313196676
0.5999999999998886        0.3999999999999929       2.6839389516131162
0.6499999999998874        0.24999999999999217      0.24269530543364073
0.699999999999888         0.24999999999999156      0.19917922862052082
0.649999999999888         0.2999999999999922       0.19664542191622525
0.6999999999998886        0.2999999999999916       0.21006971215336145
0.7499999999998874        0.14999999999999086      0.2671815845227391
0.799999999999888         0.1499999999999903       0.1664748736313918
0.7499999999998881        0.19999999999999094      0.12678800543337887
0.7999999999998886        0.19999999999999035      0.2849440906616792
0.849999999999887         0                        0.15768562097873692
0.8999999999998876        0                        0.12000010746900941
0.8499999999998875        0.04999999999999482      0.1200226726044248
0.8999999999998881        0.04999999999999452      0.17902713478275106
0.8499999999998881        0.09999999999998964      0.13475882537519082
0.8999999999998887        0.09999999999998904      0.24322734472637048
0                         0.9499999999999997       0.158896982257251
0.04999999999994478       0.9499999999999992       0.12000109355164235
0.09999999999988957       0.9499999999999986       0.12000232010659152
0                         0.9999999999999997       0.18037988636102706
0.04999999999994509       0.9999999999999991       0.12622146691975597
0.09999999999989018       0.9999999999999987       0.12019382644465235
0.1499999999998889        0.8499999999999981       0.13278823162336834
0.19999999999988943       0.8499999999999974       0.12956964243348712
0.1499999999998895        0.899999999999998        0.12006161713495997
0.19999999999989004       0.8999999999999975       0.12000015670090354
0.24999999999988876       0.7499999999999969       0.12000010294188117
0.2999999999998893        0.7499999999999962       0.22652541239346535
0.24999999999988937       0.7999999999999969       0.6158422075982426
0.29999999999988985       0.7999999999999963       0.5901408122544233
0.34999999999988873       0.6499999999999958       0.1386165633909816
0.39999999999988933       0.6499999999999952       0.19562963117905802
0.3499999999998893        0.6999999999999957       0.2826954732997997
0.3999999999998899        0.6999999999999952       0.386729417571969
0.4499999999998887        0.5499999999999946       0.17988971799411602
0.49999999999988926       0.549999999999994        0.15909931471058342
0.44999999999988927       0.5999999999999945       1.0292069100460965
0.49999999999988987       0.599999999999994        0.4144421265442689
0.5499999999998886        0.4499999999999935       0.12307707787165167
0.5999999999998892        0.44999999999999285      0.14228875847645467
0.5499999999998892        0.49999999999999345      0.12000275881184344
0.5999999999998897        0.4999999999999928       0.12503331789124542
0.6499999999998886        0.34999999999999226      0.12283890043169579
0.6999999999998892        0.34999999999999165      0.12000016029232015
0.6499999999998891        0.3999999999999923       0.12000032272990109
0.6999999999998897        0.3999999999999917       0.19581607223638817
0.7499999999998886        0.249999999999991        0.1211677940446946
0.7999999999998892        0.24999999999999042      0.12811942414813918
0.7499999999998892        0.29999999999999105      0.16972823631865272
0.7999999999998898        0.2999999999999905       0.26060894865057715
0.8499999999998886        0.14999999999998967      0.19166406585583995
0.8999999999998892        0.14999999999998906      0.12672376006011224
0.8499999999998892        0.1999999999999897       0.1204832411288961
0.8999999999998898        0.19999999999998908      0.16905092720251885
0.9499999999998882        0                        2.699817381709866
0.9999999999998888        0                        0.4777687077707004
0.9499999999998887        0.0499999999999942       0.12446278682963878
0.9999999999998893        0.04999999999999388      0.5601994799235277
0.9499999999998893        0.0999999999999884       0.12004226838366402
0.9999999999998899        0.09999999999998777      0.1200013960707346
0                         1.0499999999999996       0.12408986290864535
0.049999999999945394      1.049999999999999        0.14290061445236066
0.09999999999989079       1.0499999999999985       0.19479973636885412
0                         1.0999999999999996       0.1617422264649691
0.049999999999945706      1.099999999999999        0.12082447799211353
0.09999999999989141       1.0999999999999983       1.0423927548448841
0.1499999999998901        0.949999999999998        0.360258313605445
0.19999999999989065       0.9499999999999975       0.13981621941815356
0.14999999999989072       0.9999999999999981       0.2206560603339353
0.19999999999989124       0.9999999999999976       0.12014065810401267
0.24999999999988998       0.8499999999999969       0.3648445763014482
0.29999999999989047       0.8499999999999963       0.19258977158489815
0.2499999999998906        0.899999999999997        0.12044012840103954
0.29999999999989113       0.8999999999999965       1.021360217890989
0.3499999999998899        0.7499999999999958       0.12000715203505223
0.3999999999998905        0.7499999999999951       0.16532898100273224
0.3499999999998905        0.7999999999999957       0.828248954243589
0.3999999999998911        0.7999999999999952       0.12003327682923773
0.4499999999998899        0.6499999999999946       0.25915235431747397
0.4999999999998904        0.649999999999994        0.12011191665653939
0.4499999999998905        0.6999999999999946       0.1484144625984345
0.49999999999989103       0.6999999999999941       0.12004756760113043
0.5499999999998898        0.5499999999999935       0.12000581104725691
0.5999999999998903        0.5499999999999928       0.12219710413837534
0.5499999999998904        0.5999999999999934       0.15732271992440383
0.5999999999998908        0.5999999999999929       0.12005335915354005
0.6499999999998898        0.4499999999999923       0.12110677688008444
0.6999999999998905        0.44999999999999174      0.12000004829166533
0.6499999999998904        0.4999999999999923       0.12013940412303883
0.6999999999998912        0.4999999999999918       0.12028830189131448
0.7499999999998898        0.34999999999999104      0.12000712534058708
0.7999999999998904        0.34999999999999043      0.1200022507929974
0.7499999999998903        0.39999999999999103      0.13408846736900262
0.7999999999998909        0.39999999999999036      0.13301338576868751
0.8499999999998897        0.24999999999998979      0.21193412506844558
0.8999999999998903        0.24999999999998915      0.13452081821801673
0.8499999999998904        0.29999999999998983      0.12448367119606787
0.8999999999998909        0.2999999999999892       0.34275771435120356
0.9499999999998898        0.14999999999998845      0.2428048701454961
0.9999999999998904        0.14999999999998784      0.12292553456224463
0.9499999999998904        0.1999999999999885       0.12006950772624224
0.999999999999891         0.1999999999999879       0.13172256736615662
1.0499999999998892        0                        0.12265748410096372
1.09999999999989          0                        0.13869872661838892
1.04999999999989          0.049999999999993584     0.12009614224562264
1.0999999999998904        0.049999999999993286     0.12085462357537355
1.0499999999998906        0.09999999999998717      0.1380464534774965
1.099999999999891         0.09999999999998657      0.12002486399580903
0                         1.1499999999999995       0.12005570592269194
0.049999999999946004      1.149999999999999        0.12300001302030811
0.09999999999989201       1.1499999999999986       0.12018362948051704
0                         1.1999999999999995       0.12853493338212876
0.0499999999999463        1.199999999999999        0.12608063223469596
0.0999999999998926        1.1999999999999986       0.12000068761136302
0.14999999999989133       1.049999999999998        0.12273908657798735
0.19999999999989185       1.0499999999999976       0.12003110862197583
0.14999999999989194       1.0999999999999979       0.12061991005837532
0.19999999999989246       1.0999999999999974       0.13941476910034817
0.2499999999998912        0.9499999999999971       0.30379595604756593
0.2999999999998917        0.9499999999999964       0.15677608837967855
0.24999999999989175       0.9999999999999969       1.3810481125914427
0.2999999999998923        0.9999999999999962       0.7319326257444609
0.34999999999989106       0.8499999999999959       0.12000136062081451
0.39999999999989166       0.8499999999999952       0.13854438007206718
0.3499999999998916        0.8999999999999959       0.1214905126964243
0.39999999999989216       0.8999999999999952       0.2679823783625056
0.44999999999989104       0.7499999999999946       0.12047796205964438
0.49999999999989164       0.749999999999994        0.1700415353952417
0.44999999999989165       0.7999999999999946       0.1200340077287712
0.4999999999998922        0.799999999999994        0.12819064802147287
0.549999999999891         0.6499999999999935       0.25494572109577596
0.5999999999998915        0.6499999999999928       0.3635883905174155
0.5499999999998916        0.6999999999999935       0.13369857178729408
0.5999999999998922        0.6999999999999929       0.12735441757689256
0.649999999999891         0.5499999999999923       0.15372205414552437
0.6999999999998918        0.5499999999999918       0.12000194614228936
0.6499999999998916        0.5999999999999923       0.12156516992525908
0.6999999999998924        0.5999999999999919       0.23590400494699781
0.7499999999998909        0.4499999999999911       0.13429234689046807
0.7999999999998915        0.4499999999999904       0.261113338473166
0.7499999999998916        0.4999999999999911       0.1200039755325518
0.799999999999892         0.49999999999999045      0.7456309023339706
0.8499999999998911        0.3499999999999898       0.12617418075082004
0.8999999999998916        0.34999999999998926      0.12978230821992942
0.8499999999998915        0.3999999999999898       0.12025783887308807
0.8999999999998922        0.3999999999999893       0.12002004703574302
0.9499999999998909        0.24999999999998856      0.1233261504750533
0.9999999999998915        0.24999999999998798      0.29596983610173977
0.9499999999998915        0.2999999999999886       0.14430217444124
0.9999999999998921        0.29999999999998805      0.12000047475043868
1.049999999999891         0.14999999999998725      0.120002672193398
1.0999999999998915        0.14999999999998664      0.12163339457334786
1.0499999999998915        0.1999999999999873       0.20684455884752587
1.099999999999892         0.1999999999999867       2.34494288177461
1.1499999999998907        0                        0.22079963687907384
1.1999999999998912        0                        0.16627665047503343
1.149999999999891         0.04999999999999299      0.12176899184335908
1.1999999999998918        0.04999999999999269      0.12209619869566915
1.1499999999998916        0.09999999999998598      0.19312224157024752
1.1999999999998923        0.09999999999998538      0.12004031689982317
0                         1.2499999999999996       0.1210023982327492
0.049999999999946615      1.2499999999999991       1.2757765315679412
0.09999999999989323       1.2499999999999987       0.3787188802944478
0                         1.2999999999999994       0.1269511353174722
0.04999999999994692       1.299999999999999        0.12050453723585064
0.09999999999989384       1.2999999999999985       0.12037523252740932
0.14999999999989252       1.149999999999998        0.24321473767158425
0.19999999999989304       1.1499999999999975       1.0826632812980272
0.1499999999998931        1.199999999999998        0.12909984690877985
0.1999999999998936        1.1999999999999975       0.14784304882712743
0.24999999999989236       1.0499999999999967       0.12000416019056828
0.2999999999998929        1.0499999999999963       0.12218868576863923
0.24999999999989297       1.0999999999999968       0.1980208031980937
0.2999999999998935        1.099999999999996        0.18243837675787894
0.34999999999989223       0.949999999999996        0.12105841191596729
0.3999999999998928        0.9499999999999953       0.12031233963934046
0.34999999999989284       0.9999999999999958       0.1628917056235998
0.39999999999989333       0.9999999999999953       4.164798919621165
0.44999999999989215       0.8499999999999946       0.13178432980934693
0.4999999999998927        0.8499999999999941       0.13362881440410768
0.4499999999998927        0.8999999999999947       0.2334907411557327
0.4999999999998932        0.8999999999999941       0.12102610999550506
0.5499999999998921        0.7499999999999936       0.17724480349616453
0.5999999999998927        0.7499999999999929       0.12003715399559448
0.5499999999998928        0.7999999999999935       0.12000499213977688
0.5999999999998933        0.7999999999999929       1.525458691616259
0.649999999999892         0.6499999999999924       1.2723128871963243
0.6999999999998927        0.6499999999999918       0.15620224354502185
0.6499999999998926        0.6999999999999923       0.13462754394044527
0.6999999999998929        0.6999999999999917       0.12007020659595363
0.7499999999998921        0.5499999999999912       0.12481533285030456
0.7999999999998925        0.5499999999999905       0.12239565304897908
0.7499999999998926        0.5999999999999912       0.3990017357231196
0.7999999999998929        0.5999999999999905       3.450148230905854
0.849999999999892         0.44999999999998985      0.2631768457278961
0.8999999999998927        0.4499999999999893       0.30273247523975133
0.8499999999998926        0.4999999999999899       0.4958965908040115
0.8999999999998931        0.49999999999998934      0.1372503374398224
0.949999999999892         0.34999999999998865      0.12014549169785849
0.9999999999998926        0.34999999999998804      0.7513886576677757
0.9499999999998927        0.3999999999999887       0.1205422821835586
0.9999999999998932        0.39999999999998803      0.12751380996426762
1.0499999999998921        0.24999999999998737      0.12009335476848901
1.0999999999998926        0.24999999999998676      0.12014222094772974
1.0499999999998928        0.29999999999998744      0.12438186465579201
1.0999999999998933        0.29999999999998683      0.15381953493833822
1.149999999999892         0.14999999999998603      0.4656878693045794
1.1999999999998927        0.14999999999998545      0.12346996102410973
1.1499999999998924        0.1999999999999861       0.16615697999145695
1.1999999999998932        0.19999999999998552      0.12200672596896124
1.2499999999998916        0                        0.15852806384946042
1.2999999999998924        0                        0.14617658527472777
1.2499999999998923        0.049999999999992384     0.2617489172398252
1.2999999999998928        0.04999999999999207      0.4073282473251809
1.249999999999893         0.09999999999998477      0.1201595164366834
1.2999999999998935        0.09999999999998414      0.13025229379826328
0                         1.3499999999999994       0.12368230417492536
0.04999999999994723       1.349999999999999        0.17634252310173343
0.09999999999989446       1.3499999999999985       0.13940677843976618