% Model:              Baseline_Circular_BIG_1.mph
% Version:            COMSOL 6.0.0.405
% Date:               Jun 9 2024, 17:21
% Dimension:          2
% Nodes:              40401
% Expressions:        1
% Description:        Surface
% X                       Y                        Dependent variable Phid
0                         0                        -0.05068676239686395
0.04999999999993898       0                        0.016242692797451327
0.09999999999987796       0                        0.053682961412758044
0                         0.05                     -0.17545204622836552
0.04999999999993929       0.0499999999999997       -0.13654195975920705
0.09999999999987857       0.04999999999999939      -0.11230426626814428
0                         0.1                      -0.24469215407754588
0.0499999999999396        0.0999999999999994       -0.22930224285554393
0.0999999999998792        0.09999999999999878      -0.21929725331208358
0                         0.15000000000000002      -0.2729961399779473
0.04999999999993991       0.14999999999999938      -0.2681353500577003
0.09999999999987982       0.14999999999999877      -0.264932780480454
0                         0.2                      -0.2819912406460948
0.04999999999994022       0.1999999999999994       -0.2808096039632277
0.09999999999988043       0.19999999999999876      -0.28000278811167806
0.14999999999987856       0                        0.05581569801154421
0.19999999999987916       0                        0.022884419678394
0.14999999999987915       0.04999999999999909      -0.11088102577482925
0.19999999999987972       0.04999999999999878      -0.13242339321975982
0.14999999999987976       0.09999999999999817      -0.2186665935755555
0.1999999999998803        0.09999999999999756      -0.2275941955887414
0                         0.25                     -0.28406916616180544
0.04999999999994051       0.24999999999999942      -0.2840621307314346
0.09999999999988102       0.24999999999999878      -0.2840136530175983
0                         0.3                      -0.2839966217433557
0.04999999999994079       0.2999999999999994       -0.284284725865355
0.09999999999988159       0.2999999999999988       -0.28442843307417476
0.1499999999998804        0.1499999999999982       -0.26471021202258554
0.19999999999988097       0.14999999999999758      -0.2675413009437811
0.14999999999988103       0.19999999999999818      -0.279928053116507
0.19999999999988163       0.19999999999999762      -0.28060599835313377
0.24999999999987976       0                        -0.041085136295739254
0.29999999999988036       0                        -0.12084309568747789
0.24999999999988035       0.049999999999998476     -0.17004151485105146
0.299999999999881         0.04999999999999818      -0.21153055035683138
0.24999999999988093       0.09999999999999695      -0.24253792695739368
0.2999999999998816        0.09999999999999636      -0.2583516784236902
0                         0.35                     -0.28385183317115237
0.049999999999941105      0.34999999999999937      -0.2842072983931174
0.09999999999988221       0.34999999999999876      -0.28439597893734664
0                         0.3999999999999999       -0.2840482763660178
0.04999999999994141       0.39999999999999936      -0.2843513719522965
0.09999999999988282       0.39999999999999875      -0.28450420064374826
0.14999999999988162       0.2499999999999982       -0.2839850779030854
0.19999999999988222       0.2499999999999976       -0.2839800732822608
0.1499999999998822        0.2999999999999982       -0.28441141490895244
0.19999999999988283       0.2999999999999976       -0.28423230613207856
0.24999999999988157       0.14999999999999697      -0.2722407360499232
0.2999999999998822        0.14999999999999633      -0.2771156164191034
0.2499999999998822        0.19999999999999696      -0.2817131826916274
0.2999999999998828        0.19999999999999632      -0.2827875316437538
0.34999999999988096       0                        -0.19280903469880759
0.39999999999988156       0                        -0.24233105064636792
0.3499999999998816        0.049999999999997866     -0.2454286387034261
0.39999999999988217       0.04999999999999756      -0.26737411899483754
0.3499999999998822        0.09999999999999573      -0.2709968901294803
0.3999999999998828        0.09999999999999512      -0.27905517038125827
0                         0.4499999999999999       -0.2842579059977785
0.04999999999994173       0.4499999999999993       -0.28430249966782395
0.09999999999988346       0.44999999999999873      -0.28428316020254757
0                         0.4999999999999999       -0.28258873635489656
0.04999999999994204       0.49999999999999933      -0.2815740331393477
0.09999999999988408       0.4999999999999988       -0.28085643380851916
0.14999999999988278       0.34999999999999815      -0.2843818304789682
0.1999999999998834        0.34999999999999754      -0.28416233231500254
0.1499999999998834        0.39999999999999813      -0.2844872225168612
0.199999999999884         0.3999999999999975       -0.2842995483482317
0.24999999999988282       0.24999999999999697      -0.2839381568717737
0.29999999999988336       0.24999999999999634      -0.28378960704306133
0.2499999999998834        0.299999999999997        -0.2838994166643788
0.29999999999988397       0.2999999999999964       -0.28344903953843653
0.3499999999998828        0.14999999999999575      -0.2808982308608907
0.39999999999988345       0.14999999999999516      -0.28317513017059937
0.3499999999998834        0.19999999999999576      -0.2834957229038566
0.39999999999988406       0.1999999999999952       -0.2837784750112197
0.44999999999988216       0                        -0.2690583118035667
0.49999999999988276       0                        -0.2806920893080526
0.4499999999998828        0.04999999999999725      -0.278891614060609
0.49999999999988337       0.049999999999996936     -0.28377054637879545
0.4499999999998834        0.0999999999999945       -0.2831467656145875
0.499999999999884         0.09999999999999387      -0.2847649020839253
0                         0.5499999999999998       -0.2746690524378999
0.049999999999942354      0.5499999999999994       -0.27030893696050384
0.09999999999988471       0.5499999999999987       -0.26737075582761805
0                         0.5999999999999999       -0.24890981347089375
0.04999999999994266       0.5999999999999993       -0.23480645024871952
0.09999999999988532       0.5999999999999988       -0.22544439830605498
0.149999999999884         0.4499999999999981       -0.2842505075128072
0.1999999999998846        0.4499999999999975       -0.2842106183428212
0.14999999999988464       0.49999999999999817      -0.28075672469679924
0.19999999999988521       0.49999999999999756      -0.28130649588958034
0.24999999999988398       0.349999999999997        -0.28376316643537697
0.2999999999998846        0.3499999999999963       -0.283247132659828
0.24999999999988456       0.3999999999999969       -0.2839530767241811
0.29999999999988514       0.39999999999999625      -0.28348864423004316
0.34999999999988396       0.24999999999999578      -0.2835215535929797
0.3999999999998846        0.24999999999999523      -0.2832140274622667
0.34999999999988457       0.2999999999999958       -0.28295833508335694
0.39999999999988517       0.2999999999999952       -0.2825517027001748
0.44999999999988394       0.14999999999999453      -0.2842043018203496
0.49999999999988454       0.14999999999999392      -0.2845570191443792
0.4499999999998846        0.19999999999999457      -0.28380673934418
0.4999999999998851        0.19999999999999393      -0.2838519242073721
0.5499999999998834        0                        -0.28475387553213033
0.599999999999884         0                        -0.2856462446864811
0.5499999999998839        0.049999999999996644     -0.2853548915903325
0.5999999999998846        0.04999999999999635      -0.2856648883234869
0.5499999999998846        0.09999999999999329      -0.2852551105262592
0.5999999999998853        0.0999999999999927       -0.28543704823049526
0                         0.6499999999999998       -0.18442791744068432
0.04999999999994295       0.6499999999999992       -0.14781246917046886
0.0999999999998859        0.6499999999999987       -0.12442257811202245
0                         0.6999999999999997       -0.06444456166227452
0.04999999999994325       0.6999999999999992       9.017388786893394E-4
0.0999999999998865        0.6999999999999986       0.038562449232986164
0.14999999999988525       0.5499999999999982       -0.26705404374354547
0.19999999999988582       0.5499999999999975       -0.26947295081284
0.14999999999988586       0.5999999999999981       -0.2245106234806157
0.1999999999998864        0.5999999999999974       -0.23232088789676886
0.24999999999988518       0.4499999999999969       -0.2841165576266586
0.29999999999988575       0.4499999999999963       -0.2839152993261486
0.24999999999988579       0.4999999999999969       -0.28223232578839325
0.29999999999988636       0.4999999999999963       -0.28313056156598293
0.3499999999998852        0.3499999999999958       -0.28271391549785446
0.3999999999998858        0.34999999999999526      -0.2822984162113166
0.34999999999988574       0.3999999999999958       -0.28298656437785485
0.39999999999988634       0.3999999999999953       -0.2825721040408467
0.44999999999988516       0.24999999999999462      -0.2830218804355215
0.4999999999998857        0.24999999999999395      -0.2831107505160073
0.4499999999998857        0.2999999999999946       -0.2823831172870156
0.4999999999998863        0.299999999999994        -0.28258384055366925
0.5499999999998851        0.1499999999999933       -0.2847592267228785
0.5999999999998857        0.14999999999999275      -0.2850546983730205
0.5499999999998857        0.19999999999999335      -0.2841369208974806
0.5999999999998863        0.1999999999999928       -0.28461547780592256
0.6499999999998846        0                        -0.285644935109178
0.6999999999998852        0                        -0.2854970427568184
0.6499999999998852        0.049999999999996034     -0.28570979271753405
0.6999999999998858        0.049999999999995715     -0.28558953178943886
0.6499999999998859        0.09999999999999207      -0.2855930166851184
0.6999999999998865        0.09999999999999143      -0.2852128072458979
0                         0.7499999999999998       0.08694694165590748
0.04999999999994355       0.7499999999999991       0.16009928294152798
0.0999999999998871        0.7499999999999987       0.19601961485860533
0                         0.7999999999999997       0.20921879089482814
0.04999999999994385       0.7999999999999992       0.265856390722185
0.0999999999998877        0.7999999999999986       0.2893267425018979
0.14999999999988647       0.649999999999998        -0.12221908085083015
0.19999999999988702       0.6499999999999975       -0.1416462203593356
0.14999999999988706       0.699999999999998        0.04196029349937933
0.19999999999988763       0.6999999999999974       0.011154100059533338
0.24999999999988637       0.5499999999999969       -0.2736129269556364
0.2999999999998869        0.5499999999999963       -0.27796743889083647
0.24999999999988698       0.5999999999999969       -0.24578724821747783
0.2999999999998875        0.5999999999999963       -0.26025242011742633
0.34999999999988635       0.44999999999999574      -0.28360528189153794
0.39999999999988695       0.44999999999999524      -0.2832695832205023
0.34999999999988696       0.4999999999999957       -0.28370488148765566
0.39999999999988756       0.49999999999999517      -0.2839028642175582
0.4499999999998863        0.3499999999999946       -0.28215361455111027
0.49999999999988687       0.349999999999994        -0.2824007746775449
0.44999999999988693       0.39999999999999464      -0.2823984546145383
0.4999999999998875        0.39999999999999397      -0.2825955543926049
0.5499999999998864        0.24999999999999337      -0.2835795524917181
0.5999999999998868        0.2499999999999928       -0.2842123904274091
0.5499999999998869        0.2999999999999934       -0.2832035456899294
0.5999999999998875        0.29999999999999283      -0.28392889215418204
0.6499999999998863        0.1499999999999921       -0.2852720740904284
0.6999999999998869        0.14999999999999147      -0.28420946973396466
0.6499999999998869        0.19999999999999216      -0.2847831290949176
0.6999999999998875        0.19999999999999152      -0.2826263851516118
0.7499999999998858        0                        -0.2852200581529479
0.7999999999998864        0                        -0.2841542054953945
0.7499999999998864        0.049999999999995416     -0.2846967112060212
0.7999999999998869        0.04999999999999512      -0.28134924345896883
0.749999999999887         0.09999999999999083      -0.28278628144394485
0.7999999999998875        0.09999999999999024      -0.27463844781735525
0                         0.8499999999999996       0.2772474238698624
0.04999999999994416       0.8499999999999992       0.3148193815631329
0.09999999999988832       0.8499999999999985       0.328236923317246
0                         0.8999999999999997       0.3074014368326852
0.04999999999994447       0.8999999999999991       0.33334246545646357
0.09999999999988894       0.8999999999999986       0.341504690308199
0.14999999999988767       0.749999999999998        0.1992351911221718
0.19999999999988824       0.7499999999999974       0.17026272487372038
0.14999999999988828       0.799999999999998        0.2914503358042771
0.19999999999988885       0.7999999999999975       0.27256991582705714
0.2499999999998876        0.6499999999999968       -0.17639438616401268
0.29999999999988813       0.6499999999999964       -0.21511698565335444
0.2499999999998882        0.6999999999999968       -0.04966368437793548
0.29999999999988874       0.6999999999999963       -0.12574724773503806
0.3499999999998875        0.5499999999999957       -0.28137429854125956
0.3999999999998881        0.5499999999999952       -0.2834275875982778
0.3499999999998881        0.5999999999999958       -0.27196151152032094
0.3999999999998887        0.5999999999999952       -0.27950183315507043
0.4499999999998875        0.4499999999999946       -0.28306031935248077
0.4999999999998881        0.44999999999999407      -0.2831383616212578
0.4499999999998881        0.49999999999999467      -0.283883886770427
0.49999999999988864       0.4999999999999941       -0.28390299195618324
0.5499999999998875        0.3499999999999934       -0.28307472180756854
0.5999999999998881        0.3499999999999929       -0.2838290208373006
0.549999999999888         0.39999999999999347      -0.2832122305575704
0.5999999999998886        0.3999999999999929       -0.28393597620246896
0.6499999999998874        0.24999999999999217      -0.2842374733077631
0.699999999999888         0.24999999999999156      -0.2808029904691784
0.649999999999888         0.2999999999999922       -0.28380364267890246
0.6999999999998886        0.2999999999999916       -0.2793239654928318
0.7499999999998874        0.14999999999999086      -0.2790212398780681
0.799999999999888         0.1499999999999903       -0.26264930162778544
0.7499999999998881        0.19999999999999094      -0.2735145856804878
0.7999999999998886        0.19999999999999035      -0.2457283844366746
0.849999999999887         0                        -0.2811119965803991
0.8999999999998876        0                        -0.2745585657960493
0.8499999999998875        0.04999999999999482      -0.2726736957052351
0.8999999999998881        0.04999999999999452      -0.25474535566044126
0.8499999999998881        0.09999999999998964      -0.25441120828838554
0.8999999999998887        0.09999999999998904      -0.2136193617350414
0                         0.9499999999999997       0.31698138850581337
0.04999999999994478       0.9499999999999992       0.338766670103219
0.09999999999988957       0.9499999999999986       0.34514838714271706
0                         0.9999999999999997       0.31190902045061275
0.04999999999994509       0.9999999999999991       0.3358466845111817
0.09999999999989018       0.9999999999999987       0.34312245484663073
0.1499999999998889        0.8499999999999981       0.32944762415098855
0.19999999999988943       0.8499999999999974       0.31859665279395827
0.1499999999998895        0.899999999999998        0.3422256466465053
0.19999999999989004       0.8999999999999975       0.3355482814604616
0.24999999999988876       0.7499999999999969       0.10433906560946746
0.2999999999998893        0.7499999999999962       0.0034183492624419395
0.24999999999988937       0.7999999999999969       0.2234903472281055
0.29999999999988985       0.7999999999999963       0.12956208095201188
0.34999999999988873       0.6499999999999958       -0.24708170454935405
0.39999999999988933       0.6499999999999952       -0.26801573463441153
0.3499999999998893        0.6999999999999957       -0.1948010378692859
0.3999999999998899        0.6999999999999952       -0.24282558723572775
0.4499999999998887        0.5499999999999946       -0.28434260010362267
0.49999999999988926       0.549999999999994        -0.28464024100217444
0.44999999999988927       0.5999999999999945       -0.2833572224813814
0.49999999999988987       0.599999999999994        -0.2848790130304395
0.5499999999998886        0.4499999999999935       -0.2835991904274139
0.5999999999998892        0.44999999999999285      -0.2842271103704074
0.5499999999998892        0.49999999999999345      -0.2841713951598559
0.5999999999998897        0.4999999999999928       -0.28463897320517295
0.6499999999998886        0.34999999999999226      -0.28364124005832664
0.6999999999998892        0.34999999999999165      -0.27876440388127005
0.6499999999998891        0.3999999999999923       -0.2838138655510532
0.6999999999998897        0.3999999999999917       -0.2793557415103191
0.7499999999998886        0.249999999999991        -0.2672952172733717
0.7999999999998892        0.24999999999999042      -0.22696948815325185
0.7499999999998892        0.29999999999999105      -0.26226217117089246
0.7999999999998898        0.2999999999999905       -0.21200369406345523
0.8499999999998886        0.14999999999998967      -0.2228398863440524
0.8999999999998892        0.14999999999998906      -0.14603795465315744
0.8499999999998892        0.1999999999999897       -0.17950911068338843
0.8999999999998898        0.19999999999998908      -0.06171331963258347
0.9499999999998882        0                        -0.26332453928177285
0.9999999999998888        0                        -0.24795877307911493
0.9499999999998887        0.0499999999999942       -0.2246065218133945
0.9999999999998893        0.04999999999999388      -0.18427138786152478
0.9499999999998893        0.0999999999999884       -0.14806605793767819
0.9999999999998899        0.09999999999998777      -0.06780126188763727
0                         1.0499999999999996       0.2892358206088171
0.049999999999945394      1.049999999999999        0.322237665331768
0.09999999999989079       1.0499999999999985       0.33344756268890247
0                         1.0999999999999996       0.23398733943092043
0.049999999999945706      1.099999999999999        0.2838050613531152
0.09999999999989141       1.0999999999999983       0.30331345013914907
0.1499999999998901        0.949999999999998        0.3456810193348742
0.19999999999989065       0.9499999999999975       0.34035701494457316
0.14999999999989072       0.9999999999999981       0.3436752222728006
0.19999999999989124       0.9999999999999976       0.3374706479022777
0.24999999999988998       0.8499999999999969       0.2872946365520316
0.29999999999989047       0.8499999999999963       0.2150657228069122
0.2499999999998906        0.899999999999997        0.3146141620786514
0.29999999999989113       0.8999999999999965       0.25907905912183504
0.3499999999998899        0.7499999999999958       -0.10910512956918549
0.3999999999998905        0.7499999999999951       -0.19881798031925207
0.3499999999998905        0.7999999999999957       -0.006031114951773108
0.3999999999998911        0.7999999999999952       -0.138334991265053
0.4499999999998899        0.6499999999999946       -0.27912917816329547
0.4999999999998904        0.649999999999994        -0.283881931472167
0.4499999999998905        0.6999999999999946       -0.26909479956948307
0.49999999999989103       0.6999999999999941       -0.28068409777655523
0.5499999999998898        0.5499999999999935       -0.2848124091799262
0.5999999999998903        0.5499999999999928       -0.28508825139225175
0.5499999999998904        0.5999999999999934       -0.2853251029467423
0.5999999999998908        0.5999999999999929       -0.2854795343857093
0.6499999999998898        0.4499999999999923       -0.28425532578676255
0.6999999999998905        0.44999999999999174      -0.2808539658333922
0.6499999999998904        0.4999999999999923       -0.2848050747521413
0.6999999999998912        0.4999999999999918       -0.2826790659613504
0.7499999999998898        0.34999999999999104      -0.2603553078647953
0.7999999999998904        0.34999999999999043      -0.2063850440417536
0.7499999999998903        0.39999999999999103      -0.26236847803290925
0.7999999999998909        0.39999999999999036      -0.21231842964582434
0.8499999999998897        0.24999999999998979      -0.13346434945251762
0.8999999999998903        0.24999999999998915      0.016625249796509697
0.8499999999998904        0.29999999999998983      -0.09877359180051226
0.8999999999998909        0.2999999999999892       0.0682973224756158
0.9499999999998898        0.14999999999998845      -0.03475174864581668
0.9999999999998904        0.14999999999998784      0.07854081132102274
0.9499999999998904        0.1999999999999885       0.08241287932309305
0.999999999999891         0.1999999999999879       0.1982258740662128
1.0499999999998892        0                        -0.23153494081658213
1.09999999999989          0                        -0.21919975067569863
1.04999999999989          0.049999999999993584     -0.14263349948562437
1.0999999999998904        0.049999999999993286     -0.11280993566792284
1.0499999999998906        0.09999999999998717      0.005404430122954343
1.099999999999891         0.09999999999998657      0.05195974856609957
0                         1.1499999999999995       0.12628951039458947
0.049999999999946004      1.149999999999999        0.19497479669477388
0.09999999999989201       1.1499999999999986       0.22666297337298863
0                         1.1999999999999995       -0.02308376480461965
0.0499999999999463        1.199999999999999        0.045735426971179986
0.0999999999998926        1.1999999999999986       0.08307944799463673
0.14999999999989133       1.049999999999998        0.3342291359486784
0.19999999999989185       1.0499999999999976       0.3245422864383735
0.14999999999989194       1.0999999999999979       0.3045870519244289
0.19999999999989246       1.0999999999999974       0.2876617410357319
0.2499999999998912        0.9499999999999971       0.32293115493210406
0.2999999999998917        0.9499999999999964       0.2736385459251764
0.24999999999989175       0.9999999999999969       0.3178419930254785
0.2999999999998923        0.9999999999999962       0.2646234045788455
0.34999999999989106       0.8499999999999959       0.08406602682476383
0.39999999999989166       0.8499999999999952       -0.07438338262087633
0.3499999999998916        0.8999999999999959       0.14118049972901317
0.39999999999989216       0.8999999999999952       -0.026025503048398818
0.44999999999989104       0.7499999999999946       -0.2508263969182688
0.49999999999989164       0.749999999999994        -0.27441835720412394
0.44999999999989165       0.7999999999999946       -0.22425858372873123
0.4999999999998922        0.799999999999994        -0.2651146152347678
0.549999999999891         0.6499999999999935       -0.28542383528909965
0.5999999999998915        0.6499999999999928       -0.2857081979281055
0.5499999999998916        0.6999999999999935       -0.28476959468972085
0.5999999999998922        0.6999999999999929       -0.2856680659140163
0.649999999999891         0.5499999999999923       -0.28529535026498537
0.6999999999998918        0.5499999999999918       -0.28424992505469654
0.6499999999998916        0.5999999999999923       -0.28561536569840307
0.6999999999998924        0.5999999999999919       -0.28523425065073593
0.7499999999998909        0.4499999999999911       -0.26746341840183335
0.7999999999998915        0.4499999999999904       -0.2274720470323143
0.7499999999998916        0.4999999999999911       -0.2736852517975285
0.799999999999892         0.49999999999999045      -0.24624733294971088
0.8499999999998911        0.3499999999999898       -0.08632332193558662
0.8999999999998916        0.34999999999998926      0.08534921035820599
0.8499999999998915        0.3999999999999898       -0.0994825455661777
0.8999999999998922        0.3999999999999893       0.06730746861539784
0.9499999999998909        0.24999999999998856      0.16842703911629547
0.9999999999998915        0.24999999999998798      0.26642096385857067
0.9499999999998915        0.2999999999999886       0.21527645116586713
0.9999999999998921        0.29999999999998805      0.297002987657408
1.049999999999891         0.14999999999998725      0.16085780376277165
1.0999999999998915        0.14999999999998664      0.20459665577975386
1.0499999999998915        0.1999999999999873       0.2637255606266365
1.099999999999892         0.1999999999999867       0.29259903704896284
1.1499999999998907        0                        -0.21567364430828628
1.1999999999998912        0                        -0.2223454616528255
1.149999999999891         0.04999999999999299      -0.10462433874793524
1.1999999999998918        0.04999999999999269      -0.12037941977380556
1.1499999999998916        0.09999999999998598      0.06389999767156858
1.1999999999998923        0.09999999999998538      0.04063361408198563
0                         1.2499999999999996       -0.15698600497111204
0.049999999999946615      1.2499999999999991       -0.11372933055343946
0.09999999999989323       1.2499999999999987       -0.08729088061104316
0                         1.2999999999999994       -0.23614977487157385
0.04999999999994692       1.299999999999999        -0.21812036260748768
0.09999999999989384       1.2999999999999985       -0.20648402559614318
0.14999999999989252       1.149999999999998        0.2285778080162732
0.19999999999989304       1.1499999999999975       0.2010365027792999
0.1499999999998931        1.199999999999998        0.08518338912726704
0.1999999999998936        1.1999999999999975       0.05240151983437649
0.24999999999989236       1.0499999999999967       0.2962842003548596
0.2999999999998929        1.0499999999999963       0.22863127426410704
0.24999999999989297       1.0999999999999968       0.2431157498224286
0.2999999999998935        1.099999999999996        0.15383172552509694
0.34999999999989223       0.949999999999996        0.16217208863958238
0.3999999999998928        0.9499999999999953       -0.006229316261140213
0.34999999999989284       0.9999999999999958       0.1490561646871627
0.39999999999989333       0.9999999999999953       -0.018732731571606577
0.44999999999989215       0.8499999999999946       -0.19386508210560568
0.4999999999998927        0.8499999999999941       -0.25435543209648476
0.4499999999998927        0.8999999999999947       -0.16874086969565882
0.4999999999998932        0.8999999999999941       -0.24529123882673154
0.5499999999998921        0.7499999999999936       -0.283080488702509
0.5999999999998927        0.7499999999999929       -0.28527875006875203
0.5499999999998928        0.7999999999999935       -0.2803787835027245
0.5999999999998933        0.7999999999999929       -0.2845591703926493
0.649999999999892         0.6499999999999924       -0.28572695239753243
0.6999999999998927        0.6499999999999918       -0.2855896009052585
0.6499999999998926        0.6999999999999923       -0.28564651762499466
0.6999999999998929        0.6999999999999917       -0.28547188201256557
0.7499999999998921        0.5499999999999912       -0.27915015422308204
0.7999999999998925        0.5499999999999905       -0.26305417734660647
0.7499999999998926        0.5999999999999912       -0.2828560385374013
0.7999999999998929        0.5999999999999905       -0.2748807116952947
0.849999999999892         0.44999999999998985      -0.13466377503973787
0.8999999999998927        0.4499999999999893       0.014722729046383748
0.8499999999998926        0.4999999999999899       -0.18082322672249074
0.8999999999998931        0.49999999999998934      -0.0641353880406824
0.949999999999892         0.34999999999998865      0.22936771590987623
0.9999999999998926        0.34999999999998804      0.30550980421740237
0.9499999999998927        0.3999999999999887       0.21444594120199012
0.9999999999998932        0.39999999999998803      0.29649364318931815
1.0499999999998921        0.24999999999998737      0.31188529076196636
1.0999999999998926        0.24999999999998676      0.32899606564368294
1.0499999999998928        0.29999999999998744      0.3302668314069464
1.0999999999998933        0.29999999999998683      0.3413374622872471
1.149999999999892         0.14999999999998603      0.21502837155048757
1.1999999999998927        0.14999999999998545      0.19453884707651597
1.1499999999998924        0.1999999999999861       0.2990917100936207
1.1999999999998932        0.19999999999998552      0.28625664023264064
1.2499999999998916        0                        -0.23655702404935705
1.2999999999998924        0                        -0.253160811373284
1.2499999999998923        0.049999999999992384     -0.15529969960980416
1.2999999999998928        0.04999999999999207      -0.19799260149775932
1.249999999999893         0.09999999999998477      -0.015890892568697995