% Model:              Baseline_Circular_BIG_1.mph
% Version:            COMSOL 6.0.0.405
% Date:               Jun 9 2024, 17:21
% Dimension:          2
% Nodes:              40401
% Expressions:        1
% Description:        Surface
% X                       Y                        Dependent variable Phiw
0                         0                        0.3759562551354448
0.04999999999993898       0                        0.30719899210407736
0.09999999999987796       0                        0.26875686214408284
0                         0.05                     0.5049228264075593
0.04999999999993929       0.0499999999999997       0.4645686925113777
0.09999999999987857       0.04999999999999939      0.4395324773764224
0                         0.1                      0.5779578113913646
0.0499999999999396        0.0999999999999994       0.5614963574433122
0.0999999999998792        0.09999999999999878      0.550897084538171
0                         0.15000000000000002      0.6094142338875057
0.04999999999993991       0.14999999999999938      0.6037914614696619
0.09999999999987982       0.14999999999999877      0.6001668149805255
0                         0.2                      0.620839980447865
0.04999999999994022       0.1999999999999994       0.6191264608746891
0.09999999999988043       0.19999999999999876      0.618025662494968
0.14999999999987856       0                        0.2665676950207633
0.19999999999987916       0                        0.30039126734783833
0.14999999999987915       0.04999999999999909      0.4380669497781159
0.19999999999987972       0.04999999999999878      0.46032726826780124
0.14999999999987976       0.09999999999999817      0.5502383131963731
0.1999999999998803        0.09999999999999756      0.5597077002202369
0                         0.25                     0.6246246492417948
0.04999999999994051       0.24999999999999942      0.6242401216544745
0.09999999999988102       0.24999999999999878      0.6239831537306579
0                         0.3                      0.6255639177012194
0.04999999999994079       0.2999999999999994       0.6255629271907437
0.09999999999988159       0.2999999999999988       0.6255467127438958
0.1499999999998804        0.1499999999999982       0.5999282279481094
0.19999999999988097       0.14999999999999758      0.6031523861840808
0.14999999999988103       0.19999999999999818      0.6179439868156887
0.19999999999988163       0.19999999999999762      0.6189044858564623
0.24999999999987976       0                        0.36610246792556933
0.29999999999988036       0                        0.44824044451755607
0.24999999999988035       0.049999999999998476     0.4993303058895491
0.299999999999881         0.04999999999999818      0.542686538934498
0.24999999999988093       0.09999999999999695      0.5756880996273228
0.2999999999998816        0.09999999999999636      0.5928888584457604
0                         0.35                     0.6257605117035007
0.049999999999941105      0.34999999999999937      0.6258561894314171
0.09999999999988221       0.34999999999999876      0.6259006375006624
0                         0.3999999999999999       0.6256374436937973
0.04999999999994141       0.39999999999999936      0.6256533143863818
0.09999999999988282       0.39999999999999875      0.6256460451066282
0.14999999999988162       0.2499999999999982       0.6239536299569624
0.19999999999988222       0.2499999999999976       0.6241573548493785
0.1499999999998822        0.2999999999999982       0.6255318600752537
0.19999999999988283       0.2999999999999976       0.6255190472003048
0.24999999999988157       0.14999999999999697      0.6085986727407706
0.2999999999998822        0.14999999999999633      0.6144669951659666
0.2499999999998822        0.19999999999999696      0.6205433251513455
0.2999999999998828        0.19999999999999632      0.6223184773059003
0.34999999999988096       0                        0.5229350926137137
0.39999999999988156       0                        0.5752228859916632
0.3499999999998816        0.049999999999997866     0.5786984233661772
0.39999999999988217       0.04999999999999756      0.6027621152149908
0.3499999999998822        0.09999999999999573      0.6070915607805588
0.3999999999998828        0.09999999999999512      0.6166925271678637
0                         0.4499999999999999       0.6248584925570578
0.04999999999994173       0.4499999999999993       0.6245294519836062
0.09999999999988346       0.44999999999999873      0.6243011670643767
0                         0.4999999999999999       0.6215079290523347
0.04999999999994204       0.49999999999999933      0.6199673707968258
0.09999999999988408       0.4999999999999988       0.6189548084144899
0.14999999999988278       0.34999999999999815      0.6258889949561864
0.1999999999998834        0.34999999999999754      0.6258208778585352
0.1499999999998834        0.39999999999999813      0.6256290560897272
0.199999999999884         0.3999999999999975       0.6256038765073725
0.24999999999988282       0.24999999999999697      0.6245028519971257
0.29999999999988336       0.24999999999999634      0.6248575477984157
0.2499999999998834        0.299999999999997        0.6254907111157602
0.29999999999988397       0.2999999999999964       0.6254295696120598
0.3499999999998828        0.14999999999999575      0.6193548112897136
0.39999999999988345       0.14999999999999516      0.6227050196831019
0.3499999999998834        0.19999999999999576      0.6237933530107824
0.39999999999988406       0.1999999999999952       0.6247935190420733
0.44999999999988216       0                        0.6044870242529349
0.49999999999988276       0                        0.6182481960766246
0.4499999999998828        0.04999999999999725      0.6161957131326532
0.49999999999988337       0.049999999999996936     0.6226394210581332
0.4499999999998834        0.0999999999999945       0.6221479635225364
0.499999999999884         0.09999999999999387      0.6248217749579175
0                         0.5499999999999998       0.6111844711201679
0.049999999999942354      0.5499999999999994       0.6060706222614859
0.09999999999988471       0.5499999999999987       0.6027083398105151
0                         0.5999999999999999       0.5822968172991014
0.04999999999994266       0.5999999999999993       0.5671314709702215
0.09999999999988532       0.5999999999999988       0.5571708332573889
0.149999999999884         0.4499999999999981       0.6242628457752645
0.1999999999998846        0.4499999999999975       0.6244235021160649
0.14999999999988464       0.49999999999999817      0.6188401457603315
0.19999999999988521       0.49999999999999756      0.6196587595085529
0.24999999999988398       0.349999999999997        0.6256978910446789
0.2999999999998846        0.3499999999999963       0.6255324017606143
0.24999999999988456       0.3999999999999969       0.6255571664769861
0.29999999999988514       0.39999999999999625      0.6254769555038088
0.34999999999988396       0.24999999999999578      0.6251251151830476
0.3999999999998846        0.24999999999999523      0.625288455142024
0.34999999999988457       0.2999999999999958       0.6253401079652441
0.39999999999988517       0.2999999999999952       0.6252594869605382
0.44999999999988394       0.14999999999999453      0.6246411460319248
0.49999999999988454       0.14999999999999392      0.6256183889535507
0.4499999999998846        0.19999999999999457      0.6253756509322009
0.4999999999998851        0.19999999999999393      0.6257040999832038
0.5499999999998834        0                        0.6239265326465588
0.599999999999884         0                        0.6258874095047504
0.5499999999998839        0.049999999999996644     0.6253398412033717
0.5999999999998846        0.04999999999999635      0.6262645668125594
0.5499999999998846        0.09999999999999329      0.6259626840732939
0.5999999999998853        0.0999999999999927       0.6263235225218619
0                         0.6499999999999998       0.5140309606236357
0.04999999999994295       0.6499999999999992       0.4759790580766651
0.0999999999998859        0.6499999999999987       0.45178151322372073
0                         0.6999999999999997       0.3898290663723924
0.04999999999994325       0.6999999999999992       0.3226550499443776
0.0999999999998865        0.6999999999999986       0.28397537016299146
0.14999999999988525       0.5499999999999982       0.602363158131087
0.19999999999988582       0.5499999999999975       0.6051542982313994
0.14999999999988586       0.5999999999999981       0.5561906761325982
0.1999999999998864        0.5999999999999974       0.5645134090311326
0.24999999999988518       0.4499999999999969       0.6247065976992411
0.29999999999988575       0.4499999999999963       0.6249979380870118
0.24999999999988579       0.4999999999999969       0.6210992258336205
0.29999999999988636       0.4999999999999963       0.622680828895413
0.3499999999998852        0.3499999999999958       0.6253550399018716
0.3999999999998858        0.34999999999999526      0.6252167758599856
0.34999999999988574       0.3999999999999958       0.6253716072570442
0.39999999999988634       0.3999999999999953       0.6252796913699522
0.44999999999988516       0.24999999999999462      0.6254011179169052
0.4999999999998857        0.24999999999999395      0.6255275418405973
0.4499999999998857        0.2999999999999946       0.6252475895020446
0.4999999999998863        0.299999999999994        0.625337730392228
0.5499999999998851        0.1499999999999933       0.6260654388625502
0.5999999999998857        0.14999999999999275      0.6261471934859334
0.5499999999998857        0.19999999999999335      0.625903817260507
0.5999999999998863        0.1999999999999928       0.6258398650065049
0.6499999999998846        0                        0.6264036098306875
0.6999999999998852        0                        0.6262450164060119
0.6499999999998852        0.049999999999996034     0.6263969800536062
0.6999999999998858        0.049999999999995715     0.6258345221267947
0.6499999999998859        0.09999999999999207      0.6261395132179213
0.6999999999998865        0.09999999999999143      0.6248731464564725
0                         0.7499999999999998       0.23417363585304904
0.04999999999994355       0.7499999999999991       0.15885716387364696
0.0999999999998871        0.7499999999999987       0.12174560651285464
0                         0.7999999999999997       0.10806072573656153
0.04999999999994385       0.7999999999999992       0.04902326200757584
0.0999999999998877        0.7999999999999986       0.024248639219742612
0.14999999999988647       0.649999999999998        0.4495104929572105
0.19999999999988702       0.6499999999999975       0.46961800017027466
0.14999999999988706       0.699999999999998        0.2804888040476877
0.19999999999988763       0.6999999999999974       0.31214390330714076
0.24999999999988637       0.5499999999999969       0.6100156269251642
0.2999999999998869        0.5499999999999963       0.6153379052268905
0.24999999999988698       0.5999999999999969       0.5789812591985736
0.2999999999998875        0.5999999999999963       0.5947986867694762
0.34999999999988635       0.44999999999999574      0.6252140724416891
0.39999999999988695       0.44999999999999524      0.6253420832537425
0.34999999999988696       0.4999999999999957       0.6240066198762151
0.39999999999988756       0.49999999999999517      0.6249108488437777
0.4499999999998863        0.3499999999999946       0.6251789015694059
0.49999999999988687       0.349999999999994        0.6252657987541167
0.44999999999988693       0.39999999999999464      0.6252606144095586
0.4999999999998875        0.39999999999999397      0.6253464362352459
0.5499999999998864        0.24999999999999337      0.6256680012301258
0.5999999999998868        0.2499999999999928       0.6255104840198935
0.5499999999998869        0.2999999999999934       0.6254803759502112
0.5999999999998875        0.29999999999999283      0.6252613367686896
0.6499999999998863        0.1499999999999921       0.6256263060405495
0.6999999999998869        0.14999999999999147      0.6232499757941725
0.6499999999998869        0.19999999999999216      0.6249256169804838
0.6999999999998875        0.19999999999999152      0.6210753937348972
0.7499999999998858        0                        0.6254680016804824
0.7999999999998864        0                        0.6234728835312591
0.7499999999998864        0.049999999999995416     0.6239852666723193
0.7999999999998869        0.04999999999999512      0.6192102082651101
0.749999999999887         0.09999999999999083      0.6210050956906797
0.7999999999998875        0.09999999999999024      0.6108850089219849
0                         0.8499999999999996       0.03701114661826226
0.04999999999994416       0.8499999999999992       -0.0030992500622769683
0.09999999999988832       0.8499999999999985       -0.0178833695814133
0                         0.8999999999999997       0.004904953783556653
0.04999999999994447       0.8999999999999991       -0.023644814301390298
0.09999999999988894       0.8999999999999986       -0.03320389789091488
0.14999999999988767       0.749999999999998        0.11842382621269157
0.19999999999988824       0.7499999999999974       0.14838055212549742
0.14999999999988828       0.799999999999998        0.02200675893053383
0.19999999999988885       0.7999999999999975       0.04195794308671915
0.2499999999998876        0.6499999999999968       0.5057072069375291
0.29999999999988813       0.6499999999999964       0.5462544605363211
0.2499999999998882        0.6999999999999968       0.37465458357431913
0.29999999999988874       0.6999999999999963       0.45307192044354966
0.3499999999998875        0.5499999999999957       0.6198281432148778
0.3999999999998881        0.5499999999999952       0.6229394064905573
0.3499999999998881        0.5999999999999958       0.6080366473016984
0.3999999999998887        0.5999999999999952       0.6171007692772225
0.4499999999998875        0.4499999999999946       0.6254333857133929
0.4999999999998881        0.44999999999999407      0.625547724362973
0.4499999999998881        0.49999999999999467      0.6254394709822947
0.49999999999988864       0.4999999999999941       0.6257404084996439
0.5499999999998875        0.3499999999999934       0.6254128472776515
0.5999999999998881        0.3499999999999929       0.6251710871937741
0.549999999999888         0.39999999999999347      0.6254866918916003
0.5999999999998886        0.3999999999999929       0.625267859808023
0.6499999999998874        0.24999999999999217      0.6241883486861826
0.699999999999888         0.24999999999999156      0.6187603507049199
0.649999999999888         0.2999999999999922       0.6236212991925993
0.6999999999998886        0.2999999999999916       0.6169556478251323
0.7499999999998874        0.14999999999999086      0.6161384966283245
0.799999999999888         0.1499999999999903       0.5972403932579706
0.7499999999998881        0.19999999999999094      0.6096012232564105
0.7999999999998886        0.19999999999999035      0.578775302182312
0.849999999999887         0                        0.6191557618695472
0.8999999999998876        0                        0.611099218495451
0.8499999999998875        0.04999999999999482      0.6087129963384794
0.8999999999998881        0.04999999999999452      0.588699020073658
0.8499999999998881        0.09999999999998964      0.5882264866437722
0.8999999999998887        0.09999999999998904      0.5446952107708722
0                         0.9499999999999997       -0.005433487050778257
0.04999999999994478       0.9499999999999992       -0.02985300889699754
0.09999999999988957       0.9499999999999986       -0.037642661091308066
0                         0.9999999999999997       1.0848460035216956E-4
0.04999999999994509       0.9999999999999991       -0.02645339075850052
0.09999999999989018       0.9999999999999987       -0.03513352537740597
0.1499999999998889        0.8499999999999981       -0.019219843559423074
0.19999999999988943       0.8499999999999974       -0.007252622048128596
0.1499999999998895        0.899999999999998        -0.034055056281641016
0.19999999999989004       0.8999999999999975       -0.026241158586824888
0.24999999999988876       0.7499999999999969       0.2162949209828231
0.2999999999998893        0.7499999999999962       0.3200111934241382
0.24999999999988937       0.7999999999999969       0.09323192561210751
0.29999999999988985       0.7999999999999963       0.1903019118608982
0.34999999999988873       0.6499999999999958       0.5802991842692021
0.39999999999988933       0.6499999999999952       0.6033311880447569
0.3499999999998893        0.6999999999999957       0.5248195055532545
0.3999999999998899        0.6999999999999952       0.5755924976644508
0.4499999999998887        0.5499999999999946       0.6247535505093955
0.49999999999988926       0.549999999999994        0.6256749719103265
0.44999999999988927       0.5999999999999945       0.6223119384384916
0.49999999999988987       0.599999999999994        0.6248910542276469
0.5499999999998886        0.4499999999999935       0.6256816849725825
0.5999999999998892        0.44999999999999285      0.6255230374474
0.5499999999998892        0.49999999999999345      0.6259263396682878
0.5999999999998897        0.4999999999999928       0.6258576131305503
0.6499999999998886        0.34999999999999226      0.6234121131803694
0.6999999999998892        0.34999999999999165      0.6162841815883803
0.6499999999998891        0.3999999999999923       0.6236337818194937
0.6999999999998897        0.3999999999999917       0.6169934224881223
0.7499999999998886        0.249999999999991        0.6025363044966626
0.7999999999998892        0.24999999999999042      0.5587529539404188
0.7499999999998892        0.29999999999999105      0.5969476188712405
0.7999999999998898        0.2999999999999905       0.5429589768216289
0.8499999999998886        0.14999999999998967      0.5543729990369055
0.8999999999998892        0.14999999999998906      0.4741664283595964
0.8499999999998892        0.1999999999999897       0.5089176201466726
0.8999999999998898        0.19999999999998908      0.38711876960864977
0.9499999999998882        0                        0.598284966662521
0.9999999999998888        0                        0.5814408785927576
0.9499999999998887        0.0499999999999942       0.5563963414415031
0.9999999999998893        0.04999999999999388      0.514051975289072
0.9499999999998893        0.0999999999999884       0.4763309373055294
0.9999999999998899        0.09999999999998777      0.3934861900133161
0                         1.0499999999999996       0.02446089128165956
0.049999999999945394      1.049999999999999        -0.01111462400576967
0.09999999999989079       1.0499999999999985       -0.02370818668999284
0                         1.0999999999999996       0.0824982230389898
0.049999999999945706      1.099999999999999        0.030217813792296815
0.09999999999989141       1.0999999999999983       0.009374222603859941
0.1499999999998901        0.949999999999998        -0.03830781206698339
0.19999999999989065       0.9499999999999975       -0.031841469438793304
0.14999999999989072       0.9999999999999981       -0.03581929724336927
0.19999999999989124       0.9999999999999976       -0.028477242137657073
0.24999999999988998       0.8499999999999969       0.02635942152934607
0.29999999999989047       0.8499999999999963       0.10194677293751706
0.2499999999998906        0.899999999999997        -0.0029414043287688345
0.29999999999989113       0.8999999999999965       0.05606534083394925
0.3499999999998899        0.7499999999999958       0.43582394204499
0.3999999999998905        0.7499999999999951       0.528947260316525
0.3499999999998905        0.7999999999999957       0.32967610529817515
0.3999999999998911        0.7999999999999952       0.4659811095494142
0.4499999999998899        0.6499999999999946       0.616355176281297
0.4999999999998904        0.649999999999994        0.6226797139253186
0.4499999999998905        0.6999999999999946       0.604400067860651
0.49999999999989103       0.6999999999999941       0.6181336122268609
0.5499999999998898        0.5499999999999935       0.6260971053184087
0.5999999999998903        0.5499999999999928       0.626168709747644
0.5499999999998904        0.5999999999999934       0.625997029540297
0.5999999999998908        0.5999999999999929       0.6263446026368551
0.6499999999998898        0.4499999999999923       0.6242097426783086
0.6999999999998905        0.44999999999999174      0.6188222348112746
0.6499999999998904        0.4999999999999923       0.624950637737838
0.6999999999998912        0.4999999999999918       0.6211420362570959
0.7499999999998898        0.34999999999999104      0.5948506247386732
0.7999999999998904        0.34999999999999043      0.5370574368508932
0.7499999999998903        0.39999999999999103      0.5970645556779202
0.7999999999998909        0.39999999999999036      0.5432897511181092
0.8499999999998897        0.24999999999998979      0.4611423744466243
0.8999999999998903        0.24999999999998915      0.30658792042839755
0.8499999999998904        0.29999999999998983      0.425323547316541
0.8999999999998909        0.2999999999999892       0.2535032194044157
0.9499999999998898        0.14999999999998845      0.35943555788679704
0.9999999999998904        0.14999999999998784      0.24303855601579952
0.9499999999998904        0.1999999999999885       0.2390129123300446
0.999999999999891         0.1999999999999879       0.11969113143215872
1.0499999999998892        0                        0.5638267364345194
1.09999999999989          0                        0.5507489379135695
1.04999999999989          0.049999999999993584     0.4708043711903442
1.0999999999998904        0.049999999999993286     0.4399778733733298
1.0499999999998906        0.09999999999998717      0.318238847281962
1.099999999999891         0.09999999999998657      0.27042360681745087
0                         1.1499999999999995       0.19388335137006749
0.049999999999946004      1.149999999999999        0.12293618847473733
0.09999999999989201       1.1499999999999986       0.09000675300273457
0                         1.1999999999999995       0.3474767164329772
0.0499999999999463        1.199999999999999        0.27669929066187227
0.0999999999998926        1.1999999999999986       0.23826601351243215
0.14999999999989133       1.049999999999998        -0.024621226730970485
0.19999999999989185       1.0499999999999976       -0.013814529964167897
0.14999999999989194       1.0999999999999979       0.007973410074997559
0.19999999999989246       1.0999999999999974       0.02597900601064126
0.2499999999998912        0.9499999999999971       -0.012032388366039414
0.2999999999998917        0.9499999999999964       0.04076977102067226
0.24999999999989175       0.9999999999999969       -0.006477366191431907
0.2999999999998923        0.9999999999999962       0.050225908580590894
0.34999999999989106       0.8499999999999959       0.23707016796016886
0.39999999999989166       0.8499999999999952       0.3999717413786992
0.3499999999998916        0.8999999999999959       0.17828357202337933
0.39999999999989216       0.8999999999999952       0.35022120604820156
0.44999999999989104       0.7499999999999946       0.584146387642842
0.49999999999989164       0.749999999999994        0.6104747392908777
0.44999999999989165       0.7999999999999946       0.5557035299519694
0.4999999999998922        0.799999999999994        0.5998536539328675
0.549999999999891         0.6499999999999935       0.62535372377602
0.5999999999998915        0.6499999999999928       0.6262741130058675
0.5499999999998916        0.6999999999999935       0.6238625179895073
0.5999999999998922        0.6999999999999929       0.6258610265963936
0.649999999999891         0.5499999999999923       0.6256500186086006
0.6999999999998918        0.5499999999999918       0.623305337952651
0.6499999999998916        0.5999999999999923       0.6261576012053349
0.6999999999998924        0.5999999999999919       0.6249088062052921
0.7499999999998909        0.4499999999999911       0.6027243318575788
0.7999999999998915        0.4499999999999904       0.5592856088704004
0.7499999999998916        0.4999999999999911       0.6097985075756267
0.799999999999892         0.49999999999999045      0.5793350269284473
0.8499999999998911        0.3499999999999898       0.41248942660382487
0.8999999999998916        0.34999999999998926      0.235974051419032
0.8499999999998915        0.3999999999999898       0.42605425380249295
0.8999999999998922        0.3999999999999893       0.25451991166924925
0.9499999999998909        0.24999999999998856      0.15042357523016217
0.9999999999998915        0.24999999999998798      0.048658621661274104
0.9499999999998915        0.2999999999999886       0.10194049838276154
0.9999999999998921        0.29999999999998805      0.016303018294612216
1.049999999999891         0.14999999999998725      0.15831136466718537
1.0999999999998915        0.14999999999998664      0.11310669551553128
1.0499999999998915        0.1999999999999873       0.051523508944739276
1.099999999999892         0.1999999999999867       0.0210507453344925
1.1499999999998907        0                        0.5470337295212315
1.1999999999998912        0                        0.5540937506334843
1.149999999999891         0.04999999999999299      0.431529877943259
1.1999999999998918        0.04999999999999269      0.44779339146755404
1.1499999999998916        0.09999999999998598      0.25815166222304275
1.1999999999998923        0.09999999999998538      0.28204605848448006
0                         1.2499999999999996       0.48566194504602933
0.049999999999946615      1.2499999999999991       0.44082147389022763
0.09999999999989323       1.2499999999999987       0.41349267562737574
0                         1.2999999999999994       0.568741863771703
0.04999999999994692       1.299999999999999        0.5495067594237254
0.09999999999989384       1.2999999999999985       0.5371900625126884
0.14999999999989252       1.149999999999998        0.08797281904551707
0.19999999999989304       1.1499999999999975       0.11651747771734926
0.1499999999998931        1.199999999999998        0.2360559190534178
0.1999999999998936        1.1999999999999975       0.26971575795762703
0.24999999999989236       1.0499999999999967       0.016768298775924624
0.2999999999998929        1.0499999999999963       0.08781072028472997
0.24999999999989297       1.0999999999999968       0.07274967324109163
0.2999999999998935        1.099999999999996        0.1652321643611561
0.34999999999989223       0.949999999999996        0.1566252755972096
0.3999999999998928        0.9499999999999953       0.32986217588160094
0.34999999999989284       0.9999999999999958       0.17013704347671743
0.39999999999989333       0.9999999999999953       0.34269355236471377
0.44999999999989215       0.8499999999999946       0.5237445375651498
0.4999999999998927        0.8499999999999941       0.5879906434591415
0.4499999999998927        0.8999999999999947       0.4975501397266193
0.4999999999998932        0.8999999999999941       0.5781665914430923
0.5499999999998921        0.7499999999999936       0.6212980288489088
0.5999999999998927        0.7499999999999929       0.6250522460020419
0.5499999999998928        0.7999999999999935       0.6177605387669729
0.5999999999998933        0.7999999999999929       0.623910583245383
0.649999999999892         0.6499999999999924       0.6264038248796495
0.6999999999998927        0.6499999999999918       0.6258476571058207
0.6499999999998926        0.6999999999999923       0.6263890075482722
0.6999999999998929        0.6999999999999917       0.6262333364866454
0.7499999999998921        0.5499999999999912       0.6162981851196634
0.7999999999998925        0.5499999999999905       0.5976929260122121
0.7499999999998926        0.5999999999999912       0.6211078765798397
0.7999999999998929        0.5999999999999905       0.6111788735074842
0.849999999999892         0.44999999999998985      0.46238279819227424
0.8999999999998927        0.4499999999999893       0.30854143872604756
0.8499999999998926        0.4999999999999899       0.5102874692459588
0.8999999999998931        0.49999999999998934      0.3896107104792737
0.949999999999892         0.34999999999998865      0.08730193379837957
0.9999999999998926        0.34999999999998804      0.007206266413765194
0.9499999999998927        0.3999999999999887       0.10280139916039166
0.9999999999998932        0.39999999999998803      0.016844600742762932
1.0499999999998921        0.24999999999998737      3.7529064816758224E-4
1.0999999999998926        0.24999999999998676      -0.01840727007772779
1.0499999999998928        0.29999999999998744      -0.019854348837416224
1.0999999999998933        0.29999999999998683      -0.032630501702822064
1.149999999999892         0.14999999999998603      0.10228978186391188
1.1999999999998927        0.14999999999998545      0.12350135229422392
1.1499999999998924        0.1999999999999861       0.014139216352481552
1.1999999999998932        0.19999999999998552      0.02775526558678257
1.2499999999998916        0                        0.5692144018983761
1.2999999999998924        0                        0.5871158992051169
1.2499999999998923        0.049999999999992384     0.48392528691584547
1.2999999999998928        0.04999999999999207      0.528367616920954
1.249999999999893         0.09999999999998477      0.3400886800641326
1.2999999999998935        0.09999999999998414      0.42058054129086614
0                         1.3499999999999994       0.6057978699315839
0.04999999999994723       1.349999999999999        0.5990990876762681
0.09999999999989446       1.3499999999999985       0.5947927301588196
0                         1.3999999999999995       0.6196463873773725
0.049999999999947545      1.399999999999999        0.6176129615420809