% Model:              Baseline_Circular_BIG_.5.mph
% Version:            COMSOL 6.0.0.405
% Date:               Jun 29 2024, 12:27
% Dimension:          2
% Nodes:              40401
% Expressions:        1
% Description:        Surface
% X                       Y                        Dependent variable Phid
0                         0                        -0.3268907900691277
0.04999999999993898       0                        -0.3289214470513375
0.09999999999987796       0                        -0.3301316366767215
0                         0.05                     -0.32735764123512806
0.04999999999993929       0.0499999999999997       -0.3294249289046762
0.09999999999987857       0.04999999999999939      -0.3298443958167393
0                         0.1                      -0.32790804597965384
0.0499999999999396        0.0999999999999994       -0.3297974204759124
0.0999999999998792        0.09999999999999878      -0.3291830389663782
0                         0.15000000000000002      -0.3285994611486034
0.04999999999993991       0.14999999999999938      -0.3300768115902421
0.09999999999987982       0.14999999999999877      -0.32844411938560747
0                         0.2                      -0.3292968227399761
0.04999999999994022       0.1999999999999994       -0.3305587365724959
0.09999999999988043       0.19999999999999876      -0.3282904938762224
0.14999999999987856       0                        -0.3286927433038945
0.19999999999987916       0                        -0.32017489668680815
0.14999999999987915       0.04999999999999909      -0.3255443913441542
0.19999999999987972       0.04999999999999878      -0.30862649842487117
0.14999999999987976       0.09999999999999817      -0.32147595775387233
0.1999999999998803        0.09999999999999756      -0.29455467542889924
0                         0.25                     -0.3298782380740941
0.04999999999994051       0.24999999999999942      -0.33120511829248195
0.09999999999988102       0.24999999999999878      -0.32918208521437026
0                         0.3                      -0.3302477465167078
0.04999999999994079       0.2999999999999994       -0.3318039083160682
0.09999999999988159       0.2999999999999988       -0.330697011438548
0.1499999999998804        0.1499999999999982       -0.31774756246266
0.19999999999988097       0.14999999999999758      -0.2822353990781325
0.14999999999988103       0.19999999999999818      -0.3161225740934313
0.19999999999988163       0.19999999999999762      -0.2768564598989939
0.24999999999987976       0                        -0.2968506995842086
0.29999999999988036       0                        -0.2487371148901299
0.24999999999988035       0.049999999999998476     -0.26487492481574076
0.299999999999881         0.04999999999999818      -0.17908945955403918
0.24999999999988093       0.09999999999999695      -0.22674950525432636
0.2999999999998816        0.09999999999999636      -0.10270801347805404
0                         0.35                     -0.3303785712196452
0.049999999999941105      0.34999999999999937      -0.33220288981626217
0.09999999999988221       0.34999999999999876      -0.3321959902758906
0                         0.3999999999999999       -0.3302314303407296
0.04999999999994141       0.39999999999999936      -0.33225434166851053
0.09999999999988282       0.39999999999999875      -0.3332063465508211
0.14999999999988162       0.2499999999999982       -0.31785998254779
0.19999999999988222       0.2499999999999976       -0.281172224114409
0.1499999999998822        0.2999999999999982       -0.3220901333489957
0.19999999999988283       0.2999999999999976       -0.2932043232845409
0.24999999999988157       0.14999999999999697      -0.19431458998710416
0.2999999999998822        0.14999999999999633      -0.04405810979624024
0.2499999999998822        0.19999999999999696      -0.18028004388977462
0.2999999999998828        0.19999999999999632      -0.02039744253867098
0.34999999999988096       0                        -0.17273913197238255
0.39999999999988156       0                        -0.08509323177954844
0.3499999999998816        0.049999999999997866     -0.05737622469155209
0.39999999999988217       0.04999999999999756      0.059366451762954214
0.3499999999998822        0.09999999999999573      0.04859824418788562
0.3999999999998828        0.09999999999999512      0.16585208721732037
0                         0.4499999999999999       -0.3298924876770044
0.04999999999994173       0.4499999999999993       -0.3319766754056609
0.09999999999988346       0.44999999999999873      -0.3335994471874776
0                         0.4999999999999999       -0.32974365265136785
0.04999999999994204       0.49999999999999933      -0.33166410059732915
0.09999999999988408       0.4999999999999988       -0.333501663101099
0.14999999999988278       0.34999999999999815      -0.326936058642498
0.1999999999998834        0.34999999999999754      -0.3079118338184076
0.1499999999998834        0.39999999999999813      -0.33091492607576584
0.199999999999884         0.3999999999999975       -0.3206166984402465
0.24999999999988282       0.24999999999999697      -0.1907269658291669
0.29999999999988336       0.24999999999999634      -0.037536914584892334
0.2499999999998834        0.299999999999997        -0.22128891304731077
0.29999999999988397       0.2999999999999964       -0.09161602494853845
0.3499999999998828        0.14999999999999575      0.11546580916168457
0.39999999999988345       0.14999999999999516      0.2200633755477487
0.3499999999998834        0.19999999999999576      0.13921874427089242
0.39999999999988406       0.1999999999999952       0.2367782043076137
0.44999999999988216       0                        -0.013522336836122927
0.49999999999988276       0                        0.021950208803899085
0.4499999999998828        0.04999999999999725      0.13612667317983765
0.49999999999988337       0.049999999999996936     0.1685833968828922
0.4499999999998834        0.0999999999999945       0.22757581548198413
0.499999999999884         0.09999999999999387      0.24973951183413098
0                         0.5499999999999998       -0.32985033169312294
0.049999999999942354      0.5499999999999994       -0.33143491577358414
0.09999999999988471       0.5499999999999987       -0.33308538696410317
0                         0.5999999999999999       -0.3297800629955724
0.04999999999994266       0.5999999999999993       -0.33108704611334383
0.09999999999988532       0.5999999999999988       -0.33248799953919667
0.149999999999884         0.4499999999999981       -0.3333777903736494
0.1999999999998846        0.4499999999999975       -0.3290268457973205
0.14999999999988464       0.49999999999999817      -0.3343817383377211
0.19999999999988521       0.49999999999999756      -0.3333135324307446
0.24999999999988398       0.349999999999997        -0.2599553951732744
0.2999999999998846        0.3499999999999963       -0.16772023672438954
0.24999999999988456       0.3999999999999969       -0.2940231482495616
0.29999999999988514       0.39999999999999625      -0.2407691822229227
0.34999999999988396       0.24999999999999578      0.12233918683099096
0.3999999999998846        0.24999999999999523      0.2248672457795463
0.34999999999988457       0.2999999999999958       0.062196189386431476
0.39999999999988517       0.2999999999999952       0.17664707419347978
0.44999999999988394       0.14999999999999453      0.26720848460755775
0.49999999999988454       0.14999999999999392      0.2821182425973376
0.4499999999998846        0.19999999999999457      0.27799750027213316
0.4999999999998851        0.19999999999999393      0.29006329340635734
0.5499999999998834        0                        0.013941039415027784
0.599999999999884         0                        -0.03719027447274555
0.5499999999998839        0.049999999999996644     0.16115636772780784
0.5999999999998846        0.04999999999999635      0.11078152070739553
0.5499999999998846        0.09999999999999329      0.2445955985493144
0.5999999999998853        0.0999999999999927       0.2070566306627874
0                         0.6499999999999998       -0.32948088392653063
0.04999999999994295       0.6499999999999992       -0.33060152654214886
0.0999999999998859        0.6499999999999987       -0.33181274863001764
0                         0.6999999999999997       -0.3290784488404319
0.04999999999994325       0.6999999999999992       -0.33012005579573517
0.0999999999998865        0.6999999999999986       -0.3312125401981018
0.14999999999988525       0.5499999999999982       -0.33433542070815686
0.19999999999988582       0.5499999999999975       -0.3347342202490641
0.14999999999988586       0.5999999999999981       -0.33374047695131104
0.1999999999998864        0.5999999999999974       -0.33464116123648485
0.24999999999988518       0.4499999999999969       -0.3167768150423872
0.29999999999988575       0.4499999999999963       -0.29169869093573747
0.24999999999988579       0.4999999999999969       -0.32885372008064645
0.29999999999988636       0.4999999999999963       -0.31923535048678314
0.3499999999998852        0.3499999999999958       -0.040689579871590234
0.3999999999998858        0.34999999999999526      0.07533578236140766
0.34999999999988574       0.3999999999999958       -0.15939986894227648
0.39999999999988634       0.3999999999999953       -0.07028623518794577
0.44999999999988516       0.24999999999999462      0.2697764287249244
0.4999999999998857        0.24999999999999395      0.28301267166637756
0.4499999999998857        0.2999999999999946       0.23362114644984644
0.4999999999998863        0.299999999999994        0.2520003020021816
0.5499999999998851        0.1499999999999933       0.27846678645833733
0.5999999999998857        0.14999999999999275      0.25083173304805356
0.5499999999998857        0.19999999999999335      0.2865267771668538
0.5999999999998863        0.1999999999999928       0.262256660225618
0.6499999999998846        0                        -0.12013233262190834
0.6999999999998852        0                        -0.20777004917765166
0.6499999999998852        0.049999999999996034     0.012939953631865309
0.6999999999998858        0.049999999999995715     -0.11336911649070201
0.6499999999998859        0.09999999999999207      0.12003726359718551
0.6999999999998865        0.09999999999999143      -0.01959431398160146
0                         0.7499999999999998       -0.3287126614649231
0.04999999999994355       0.7499999999999991       -0.32979724661358506
0.0999999999998871        0.7499999999999987       -0.3308912845040949
0                         0.7999999999999997       -0.32852610943295013
0.04999999999994385       0.7999999999999992       -0.3297046337403725
0.0999999999998877        0.7999999999999986       -0.3309280575640129
0.14999999999988647       0.649999999999998        -0.33295585811562245
0.19999999999988702       0.6499999999999975       -0.3339771951423819
0.14999999999988706       0.699999999999998        -0.3322409775364185
0.19999999999988763       0.6999999999999974       -0.33320109377715873
0.24999999999988637       0.5499999999999969       -0.3338302795268319
0.2999999999998869        0.5499999999999963       -0.331151732829778
0.24999999999988698       0.5999999999999969       -0.3350979521110105
0.2999999999998875        0.5999999999999963       -0.3351285647976985
0.34999999999988635       0.44999999999999574      -0.25181481379476867
0.39999999999988695       0.44999999999999524      -0.20405849397022272
0.34999999999988696       0.4999999999999957       -0.3038370285144575
0.39999999999988756       0.49999999999999517      -0.28500126720136804
0.4499999999998863        0.3499999999999946       0.1461176195826915
0.49999999999988687       0.349999999999994        0.17240259285489604
0.44999999999988693       0.39999999999999464      -0.0027413310158655494
0.4999999999998875        0.39999999999999397      0.02627631394734729
0.5499999999998864        0.24999999999999337      0.27829467110951306
0.5999999999998868        0.2499999999999928       0.2503796447055697
0.5499999999998869        0.2999999999999934       0.24450286596656357
0.5999999999998875        0.29999999999999283      0.2060603430531582
0.6499999999998863        0.1499999999999921       0.17907743792756015
0.6999999999998869        0.14999999999999147      0.04431509205137665
0.6499999999998869        0.19999999999999216      0.19687700349078663
0.6999999999998875        0.19999999999999152      0.06653503672654479
0.7499999999998858        0                        -0.27312530566897447
0.7999999999998864        0                        -0.30977869578685346
0.7499999999998864        0.049999999999995416     -0.2229565265318276
0.7999999999998869        0.04999999999999512      -0.28909580358565384
0.749999999999887         0.09999999999999083      -0.16627318431492416
0.7999999999998875        0.09999999999999024      -0.2646824303545094
0                         0.8499999999999996       -0.32859183480048915
0.04999999999994416       0.8499999999999992       -0.3298151565444759
0.09999999999988832       0.8499999999999985       -0.33130649623609365
0                         0.8999999999999997       -0.32898225203278386
0.04999999999994447       0.8999999999999991       -0.33015979606569823
0.09999999999988894       0.8999999999999986       -0.3320409609955742
0.14999999999988767       0.749999999999998        -0.33189800775229167
0.19999999999988824       0.7499999999999974       -0.33277574003822596
0.14999999999988828       0.799999999999998        -0.33209407886399983
0.19999999999988885       0.7999999999999975       -0.33304028356367515
0.2499999999998876        0.6499999999999968       -0.3349512561648728
0.29999999999988813       0.6499999999999964       -0.3358738260647893
0.2499999999998882        0.6999999999999968       -0.3343236103656491
0.29999999999988874       0.6999999999999963       -0.3354846663762035
0.3499999999998875        0.5499999999999957       -0.3265212935006581
0.3999999999998881        0.5499999999999952       -0.32053314955587064
0.3499999999998881        0.5999999999999958       -0.3344011484713922
0.3999999999998887        0.5999999999999952       -0.3329724688835535
0.4499999999998875        0.4499999999999946       -0.1628093363120319
0.4999999999998881        0.44999999999999407      -0.14303588843924073
0.4499999999998881        0.49999999999999467      -0.26806593513636445
0.49999999999988864       0.4999999999999941       -0.2594644473608195
0.5499999999998875        0.3499999999999934       0.1608196263222883
0.5999999999998881        0.3499999999999929       0.1088617739631208
0.549999999999888         0.39999999999999347      0.013047726249100241
0.5999999999998886        0.3999999999999929       -0.03998333419713648
0.6499999999998874        0.24999999999999217      0.17895410497296038
0.699999999999888         0.24999999999999156      0.04478583617362102
0.649999999999888         0.2999999999999922       0.11934908692827671
0.6999999999998886        0.2999999999999916       -0.019269146457055145
0.7499999999998874        0.14999999999999086      -0.12125158686307917
0.799999999999888         0.1499999999999903       -0.24394423147342018
0.7499999999998881        0.19999999999999094      -0.10385704387735509
0.7999999999998886        0.19999999999999035      -0.2354043245686746
0.849999999999887         0                        -0.32540109361590935
0.8999999999998876        0                        -0.3297377240792626
0.8499999999998875        0.04999999999999482      -0.31840073802582813
0.8999999999998881        0.04999999999999452      -0.32797617577114124
0.8499999999998881        0.09999999999998964      -0.31000394073305265
0.8999999999998887        0.09999999999998904      -0.32564107706544104
0                         0.9499999999999997       -0.32993316793751676
0.04999999999994478       0.9499999999999992       -0.3310576664421276
0.09999999999988957       0.9499999999999986       -0.33296385546025287
0                         0.9999999999999997       -0.33143659515384544
0.04999999999994509       0.9999999999999991       -0.33215400288499103
0.09999999999989018       0.9999999999999987       -0.33326352952674987
0.1499999999998889        0.8499999999999981       -0.3328602023686368
0.19999999999988943       0.8499999999999974       -0.33413672274849443
0.1499999999998895        0.899999999999998        -0.33401490876870166
0.19999999999989004       0.8999999999999975       -0.33562238239036524
0.24999999999988876       0.7499999999999969       -0.3337754974659985
0.2999999999998893        0.7499999999999962       -0.3350744162698297
0.24999999999988937       0.7999999999999969       -0.33395187897131323
0.29999999999988985       0.7999999999999963       -0.3352621388811292
0.34999999999988873       0.6499999999999958       -0.33644288268612804
0.39999999999988933       0.6499999999999952       -0.33649410548157904
0.3499999999998893        0.6999999999999957       -0.3364444865697647
0.3999999999998899        0.6999999999999952       -0.3369178349144542
0.4499999999998887        0.5499999999999946       -0.31487295460404535
0.49999999999988926       0.549999999999994        -0.31177356494290936
0.44999999999988927       0.5999999999999945       -0.3313216447881946
0.49999999999988987       0.599999999999994        -0.330127056369183
0.5499999999998886        0.4499999999999935       -0.15194618984930275
0.5999999999998892        0.44999999999999285      -0.1857111549309644
0.5499999999998892        0.49999999999999345      -0.26296488351259145
0.5999999999998897        0.4999999999999928       -0.27665764100532314
0.6499999999998886        0.34999999999999226      0.011486444631190924
0.6999999999998892        0.34999999999999165      -0.11332554680119081
0.6499999999998891        0.3999999999999923       -0.12200226183151489
0.6999999999998897        0.3999999999999917       -0.2077143453536724
0.7499999999998886        0.249999999999991        -0.12046733112455472
0.7999999999998892        0.24999999999999042      -0.24310513758258456
0.7499999999998892        0.29999999999999105      -0.16507125594331942
0.7999999999998898        0.2999999999999905       -0.26312589649845347
0.8499999999998886        0.14999999999998967      -0.30267216566566885
0.8999999999998892        0.14999999999998906      -0.32348671252233346
0.8499999999998892        0.1999999999999897       -0.29949429809896433
0.8999999999998898        0.19999999999998908      -0.3224650029214669
0.9499999999998882        0                        -0.3299724571202323
0.9999999999998888        0                        -0.32872332948031413
0.9499999999998887        0.0499999999999942       -0.3295373682189046
0.9999999999998893        0.04999999999999388      -0.3280584295351793
0.9499999999998893        0.0999999999999884       -0.3289864702369452
0.9999999999998899        0.09999999999998777      -0.32766754661805486
0                         1.0499999999999996       -0.3327777036859125
0.049999999999945394      1.049999999999999        -0.3322651296667426
0.09999999999989079       1.0499999999999985       -0.3307048327030968
0                         1.0999999999999996       -0.3320191855508149
0.049999999999945706      1.099999999999999        -0.32758453178385594
0.09999999999989141       1.0999999999999983       -0.31894370005248424
0.1499999999998901        0.949999999999998        -0.33507186875962014
0.19999999999989065       0.9499999999999975       -0.336679731158134
0.14999999999989072       0.9999999999999981       -0.33442994637811263
0.19999999999989124       0.9999999999999976       -0.33489663167048983
0.24999999999988998       0.8499999999999969       -0.33524635709248624
0.29999999999989047       0.8499999999999963       -0.3363057618079328
0.2499999999998906        0.899999999999997        -0.33682621982546146
0.29999999999989113       0.8999999999999965       -0.33764649776818734
0.3499999999998899        0.7499999999999958       -0.3361963171539955
0.3999999999998905        0.7499999999999951       -0.33677282927170854
0.3499999999998905        0.7999999999999957       -0.33632608193923097
0.3999999999998911        0.7999999999999952       -0.3368291256800636
0.4499999999998899        0.6499999999999946       -0.3361217273608059
0.4999999999998904        0.649999999999994        -0.3354780161095714
0.4499999999998905        0.6999999999999946       -0.3368423308743477
0.49999999999989103       0.6999999999999941       -0.33631662862065703
0.5499999999998898        0.5499999999999935       -0.3125436665623536
0.5999999999998903        0.5499999999999928       -0.3164329108022122
0.5499999999998904        0.5999999999999934       -0.3297735302420732
0.5999999999998908        0.5999999999999929       -0.3300127496459556
0.6499999999998898        0.4499999999999923       -0.23187970325523027
0.6999999999998905        0.44999999999999174      -0.27479645832590294
0.6499999999998904        0.4999999999999923       -0.29468700729042074
0.6999999999998912        0.4999999999999918       -0.31071790544041755
0.7499999999998898        0.34999999999999104      -0.22160244073339955
0.7999999999998904        0.34999999999999043      -0.28703076744288003
0.7499999999998903        0.39999999999999103      -0.27151806691287306
0.7999999999998909        0.39999999999999036      -0.3071448840350391
0.8499999999998897        0.24999999999998979      -0.30187375833026087
0.8999999999998903        0.24999999999998915      -0.3228383324346872
0.8499999999998904        0.29999999999998983      -0.30838613616436605
0.8999999999998909        0.2999999999999892       -0.3241851654761095
0.9499999999998898        0.14999999999998845      -0.3285159383753824
0.9999999999998904        0.14999999999998784      -0.3276779221430209
0.9499999999998904        0.1999999999999885       -0.32825389376316466
0.999999999999891         0.1999999999999879       -0.3276561677351312
1.0499999999998892        0                        -0.32706493530850467
1.09999999999989          0                        -0.3256309298225916
1.04999999999989          0.049999999999993584     -0.32593882263015456
1.0999999999998904        0.049999999999993286     -0.32436039707035474
1.0499999999998906        0.09999999999998717      -0.3252845588642844
1.099999999999891         0.09999999999998657      -0.3235821311252193
0                         1.1499999999999995       -0.32652105641794665
0.049999999999946004      1.149999999999999        -0.3122683378118563
0.09999999999989201       1.1499999999999986       -0.28671309911316106
0                         1.1999999999999995       -0.3127464773281416
0.0499999999999463        1.199999999999999        -0.27847327047050785
0.0999999999998926        1.1999999999999986       -0.220485505639117
0.14999999999989133       1.049999999999998        -0.3282161351139534
0.19999999999989185       1.0499999999999976       -0.3246303577950747
0.14999999999989194       1.0999999999999979       -0.30620813970355143
0.19999999999989246       1.0999999999999974       -0.29109311490970213
0.2499999999998912        0.9499999999999971       -0.33767929386351553
0.2999999999998917        0.9499999999999964       -0.3382308289942231
0.24999999999989175       0.9999999999999969       -0.3347875868146389
0.2999999999998923        0.9999999999999962       -0.3346700746604056
0.34999999999989106       0.8499999999999959       -0.3370755296807438
0.39999999999989166       0.8499999999999952       -0.3374146737458244
0.3499999999998916        0.8999999999999959       -0.33810807793265224
0.39999999999989216       0.8999999999999952       -0.33834710787701033
0.44999999999989104       0.7499999999999946       -0.3367502293631575
0.49999999999989164       0.749999999999994        -0.3361947782423474
0.44999999999989165       0.7999999999999946       -0.33675986350834797
0.4999999999998922        0.799999999999994        -0.33611264275621056
0.549999999999891         0.6499999999999935       -0.3346942374295647
0.5999999999998915        0.6499999999999928       -0.3336742481777397
0.5499999999998916        0.6999999999999935       -0.33536781388524795
0.5999999999998922        0.6999999999999929       -0.33394289603516136
0.649999999999891         0.5499999999999923       -0.3215370171813801
0.6999999999998918        0.5499999999999918       -0.3257344961456876
0.6499999999998916        0.5999999999999923       -0.33040112006474986
0.6999999999998924        0.5999999999999919       -0.330272848986046
0.7499999999998909        0.4499999999999911       -0.30433842468490074
0.7999999999998915        0.4499999999999904       -0.31993132712193917
0.7499999999998916        0.4999999999999911       -0.3211867833676571
0.799999999999892         0.49999999999999045      -0.3260000030219384
0.8499999999998911        0.3499999999999898       -0.31612531451828996
0.8999999999998916        0.34999999999998926      -0.32570040739854134
0.8499999999998915        0.3999999999999898       -0.3222927131538397
0.8999999999998922        0.3999999999999893       -0.32646008117540876
0.9499999999998909        0.24999999999998856      -0.32802913620798435
0.9999999999998915        0.24999999999998798      -0.32724295427795586
0.9499999999998915        0.2999999999999886       -0.327670035155064
0.9999999999998921        0.29999999999998805      -0.3263527676811273
1.049999999999891         0.14999999999998725      -0.325443877093336
1.0999999999998915        0.14999999999998664      -0.3232898777220824
1.0499999999998915        0.1999999999999873       -0.32540623166849353
1.099999999999892         0.1999999999999867       -0.3229565758636164
1.1499999999998907        0                        -0.3246063874494403
1.1999999999998912        0                        -0.32393801841278314
1.149999999999891         0.04999999999999299      -0.32331664483964134
1.1999999999998918        0.04999999999999269      -0.3226168503798682
1.1499999999998916        0.09999999999998598      -0.32230902835229425
1.1999999999998923        0.09999999999998538      -0.32138157499767644
0                         1.2499999999999996       -0.28797860039558343
0.049999999999946615      1.2499999999999991       -0.22105649398913585
0.09999999999989323       1.2499999999999987       -0.11789850146247734
0                         1.2999999999999994       -0.2534643603320281
0.04999999999994692       1.299999999999999        -0.14700937525683078
0.09999999999989384       1.2999999999999985       -0.005268871832527468
0.14999999999989252       1.149999999999998        -0.2502186671311674
0.19999999999989304       1.1499999999999975       -0.2092619724879837
0.1499999999998931        1.199999999999998        -0.14399492722227714
0.1999999999998936        1.1999999999999975       -0.0684079729646499
0.24999999999989236       1.0499999999999967       -0.32089504099797617
0.2999999999998929        1.0499999999999963       -0.3186920766211676
0.24999999999989297       1.0999999999999968       -0.2772841892091141
0.2999999999998935        1.099999999999996        -0.26948113205273233
0.34999999999989223       0.949999999999996        -0.3385500074895503
0.3999999999998928        0.9499999999999953       -0.33894737235027533
0.34999999999989284       0.9999999999999958       -0.3351421629852976
0.39999999999989333       0.9999999999999953       -0.33648281207359126
0.44999999999989215       0.8499999999999946       -0.33731196304345784
0.4999999999998927        0.8499999999999941       -0.33663314379401865
0.4499999999998927        0.8999999999999947       -0.3383936215342498
0.4999999999998932        0.8999999999999941       -0.3378933296670647
0.5499999999998921        0.7499999999999936       -0.3351508544259635
0.5999999999998927        0.7499999999999929       -0.33362960277043996
0.5499999999998928        0.7999999999999935       -0.3350133140043943
0.5999999999998933        0.7999999999999929       -0.3335203082770703
0.649999999999892         0.6499999999999924       -0.3323664971086348
0.6999999999998927        0.6499999999999918       -0.33075555399124157
0.6499999999998926        0.6999999999999923       -0.33214705558808
0.6999999999998929        0.6999999999999917       -0.3300625645290919
0.7499999999998921        0.5499999999999912       -0.3277941771696944
0.7999999999998925        0.5499999999999905       -0.32760406098638567
0.7499999999998926        0.5999999999999912       -0.3291351994627508
0.7999999999998929        0.5999999999999905       -0.3269293351291148
0.849999999999892         0.44999999999998985      -0.32571103402137325
0.8999999999998927        0.4499999999999893       -0.32615944327663293
0.8499999999998926        0.4999999999999899       -0.3266929128581183
0.8999999999998931        0.49999999999998934      -0.32512875770592775
0.949999999999892         0.34999999999998865      -0.32702016291513514
0.9999999999998926        0.34999999999998804      -0.3250321654234781
0.9499999999998927        0.3999999999999887       -0.32588637103010626
0.9999999999998932        0.39999999999998803      -0.3234133579056978
1.0499999999998921        0.24999999999998737      -0.32484103539239356
1.0999999999998926        0.24999999999998676      -0.32222651569217703
1.0499999999998928        0.29999999999998744      -0.32371984979592855
1.0999999999998933        0.29999999999998683      -0.3210218224722006
1.149999999999892         0.14999999999998603      -0.32158279054838373
1.1999999999998927        0.14999999999998545      -0.32037768466065836
1.1499999999998924        0.1999999999999861       -0.3209343872119209
1.1999999999998932        0.19999999999998552      -0.3195324014861605
1.2499999999998916        0                        -0.3236987689273939
1.2999999999998924        0                        -0.32387496519634407
1.2499999999998923        0.049999999999992384     -0.3224116258458057
1.2999999999998928        0.04999999999999207      -0.32265052024267254