% Model:              Baseline_Circular_BIG_.5.mph
% Version:            COMSOL 6.0.0.405
% Date:               Jun 29 2024, 12:28
% Dimension:          2
% Nodes:              40401
% Expressions:        1
% Description:        Surface
% X                       Y                        Dependent variable Phiw
0                         0                        0.5668606915580074
0.04999999999993898       0                        0.5674732330879741
0.09999999999987796       0                        0.5668910427367458
0                         0.05                     0.5670228081676061
0.04999999999993929       0.0499999999999997       0.5673802942134492
0.09999999999987857       0.04999999999999939      0.5657145145943178
0                         0.1                      0.5672058237640336
0.0499999999999396        0.0999999999999994       0.5672126989084468
0.0999999999998792        0.09999999999999878      0.5642913140512539
0                         0.15000000000000002      0.5674546843354399
0.04999999999993991       0.14999999999999938      0.5671123647577483
0.09999999999987982       0.14999999999999877      0.5631045502445642
0                         0.2                      0.5677636535183673
0.04999999999994022       0.1999999999999994       0.5672399491922262
0.09999999999988043       0.19999999999999876      0.5627180487774962
0.14999999999987856       0                        0.5632280047794177
0.19999999999987916       0                        0.5521101116386901
0.14999999999987915       0.04999999999999909      0.558866836257588
0.19999999999987972       0.04999999999999878      0.5389513681519921
0.14999999999987976       0.09999999999999817      0.5537814982161392
0.1999999999998803        0.09999999999999756      0.5235589051775791
0                         0.25                     0.5680963915379549
0.04999999999994051       0.24999999999999942      0.5676410452727711
0.09999999999988102       0.24999999999999878      0.5634196004986556
0                         0.3                      0.5683961819297397
0.04999999999994079       0.2999999999999994       0.5682113484843779
0.09999999999988159       0.2999999999999988       0.5649628690638909
0.1499999999998804        0.1499999999999982       0.5494767640801664
0.19999999999988097       0.14999999999999758      0.5104446913591605
0.14999999999988103       0.19999999999999818      0.5476938111434662
0.19999999999988163       0.19999999999999762      0.5047888226760394
0.24999999999987976       0                        0.5259263673094927
0.29999999999988036       0                        0.4749437435380614
0.24999999999988035       0.049999999999998476     0.49189731698997924
0.299999999999881         0.04999999999999818      0.4027618297686074
0.24999999999988093       0.09999999999999695      0.4520770392284216
0.2999999999998816        0.09999999999999636      0.3242502945497476
0                         0.35                     0.5686064674443041
0.049999999999941105      0.34999999999999937      0.5687786892648838
0.09999999999988221       0.34999999999999876      0.5667837470599676
0                         0.3999999999999999       0.5686986364790795
0.04999999999994141       0.39999999999999936      0.5691915413324616
0.09999999999988282       0.39999999999999875      0.5683520961680977
0.14999999999988162       0.2499999999999982       0.5493521335895626
0.19999999999988222       0.2499999999999976       0.5092531545506321
0.1499999999998822        0.2999999999999982       0.5537662948474188
0.19999999999988283       0.2999999999999976       0.521865509728961
0.24999999999988157       0.14999999999999697      0.4185449143687727
0.2999999999998822        0.14999999999999633      0.2642256998804957
0.2499999999998822        0.19999999999999696      0.4041528187151888
0.2999999999998828        0.19999999999999632      0.24016946664921782
0.34999999999988096       0                        0.3962692884164672
0.39999999999988156       0                        0.3063614936059105
0.3499999999998816        0.049999999999997866     0.27789245293548165
0.39999999999988217       0.04999999999999756      0.15845163540024662
0.3499999999998822        0.09999999999999573      0.16938225593850587
0.3999999999998828        0.09999999999999512      0.049171162411193584
0                         0.4499999999999999       0.568709432878148
0.04999999999994173       0.4499999999999993       0.5694035223404932
0.09999999999988346       0.44999999999999873      0.569401220102442
0                         0.4999999999999999       0.5687179288571572
0.04999999999994204       0.49999999999999933      0.5694721873153036
0.09999999999988408       0.4999999999999988       0.5699330788529066
0.14999999999988278       0.34999999999999815      0.559218155262551
0.1999999999998834        0.34999999999999754      0.5376041754661482
0.1499999999998834        0.39999999999999813      0.564079969981955
0.199999999999884         0.3999999999999975       0.5516175442420677
0.24999999999988282       0.24999999999999697      0.4150093384252746
0.29999999999988336       0.24999999999999634      0.25801481284807315
0.2499999999998834        0.299999999999997        0.446638561023572
0.29999999999988397       0.2999999999999964       0.3137277842597673
0.3499999999998828        0.14999999999999575      0.10092169272202474
0.39999999999988345       0.14999999999999516      -0.006763968699808936
0.3499999999998834        0.19999999999999576      0.07674877919593408
0.39999999999988406       0.1999999999999952       -0.023922949628110673
0.44999999999988216       0                        0.2333531518288963
0.49999999999988276       0                        0.19764182398430213
0.4499999999998828        0.04999999999999725      0.07998369516536627
0.49999999999988337       0.049999999999996936     0.047114935112636494
0.4499999999998834        0.0999999999999945       -0.014471077627387715
0.499999999999884         0.09999999999999387      -0.03730938648547863
0                         0.5499999999999998       0.5687296999325759
0.049999999999942354      0.5499999999999994       0.5694425701839837
0.09999999999988471       0.5499999999999987       0.5700689875367934
0                         0.5999999999999999       0.5686720423474391
0.04999999999994266       0.5999999999999993       0.5693113942347738
0.09999999999988532       0.5999999999999988       0.5699526403663028
0.149999999999884         0.4499999999999981       0.5675090085973986
0.1999999999998846        0.4499999999999975       0.5614117256132481
0.14999999999988464       0.49999999999999817      0.569457449307941
0.19999999999988521       0.49999999999999756      0.5670272875154436
0.24999999999988398       0.349999999999997        0.4868489657191576
0.2999999999998846        0.3499999999999963       0.3919271974508827
0.24999999999988456       0.3999999999999969       0.5227183639357619
0.29999999999988514       0.39999999999999625      0.46728406280631335
0.34999999999988396       0.24999999999999578      0.09458371170719677
0.3999999999998846        0.24999999999999523      -0.011007484528197777
0.34999999999988457       0.2999999999999958       0.1569935871291594
0.39999999999988517       0.2999999999999952       0.03972484352447326
0.44999999999988394       0.14999999999999453      -0.055988962239262606
0.49999999999988454       0.14999999999999392      -0.07174816053105365
0.4499999999998846        0.19999999999999457      -0.06730248923052808
0.4999999999998851        0.19999999999999393      -0.08041465439739295
0.5499999999998834        0                        0.20640049690264142
0.599999999999884         0                        0.25854544346388403
0.5499999999998839        0.049999999999996644     0.055158910837388206
0.5999999999998846        0.04999999999999635      0.10672378250567743
0.5499999999998846        0.09999999999999329      -0.03165832904111895
0.5999999999998853        0.0999999999999927       0.007322606480526782
0                         0.6499999999999998       0.5685240845265469
0.04999999999994295       0.6499999999999992       0.5691022396192049
0.0999999999998859        0.6499999999999987       0.5697113956403682
0                         0.6999999999999997       0.5683300354447653
0.04999999999994325       0.6999999999999992       0.5688829209449815
0.0999999999998865        0.6999999999999986       0.5694659546219735
0.14999999999988525       0.5499999999999982       0.5702797820349903
0.19999999999988582       0.5499999999999975       0.5696509059533188
0.14999999999988586       0.5999999999999981       0.5704290646415813
0.1999999999998864        0.5999999999999974       0.5705684995494315
0.24999999999988518       0.4499999999999969       0.5473203177717548
0.29999999999988575       0.4499999999999963       0.5204937369383015
0.24999999999988579       0.4999999999999969       0.561133210652854
0.29999999999988636       0.4999999999999963       0.550090058739216
0.3499999999998852        0.3499999999999958       0.26264069349320107
0.3999999999998858        0.34999999999999526      0.1442951606352668
0.34999999999988574       0.3999999999999958       0.38390614952837065
0.39999999999988634       0.3999999999999953       0.2926821595310743
0.44999999999988516       0.24999999999999462      -0.058209726775536784
0.4999999999998857        0.24999999999999395      -0.07266699954785266
0.4499999999998857        0.2999999999999946       -0.019802733565055353
0.4999999999998863        0.299999999999994        -0.039588231803111815
0.5499999999998851        0.1499999999999933       -0.06762702417247742
0.5999999999998857        0.14999999999999275      -0.038463054766183204
0.5499999999998857        0.19999999999999335      -0.0765769958222555
0.5999999999998863        0.1999999999999928       -0.05067765063585047
0.6499999999998846        0                        0.34303579538478013
0.6999999999998852        0                        0.4328830923557019
0.6499999999998852        0.049999999999996034     0.20654935168460753
0.6999999999998858        0.049999999999995715     0.3356301202441273
0.6499999999998859        0.09999999999999207      0.09668623968128759
0.6999999999998865        0.09999999999999143      0.23952031540644544
0                         0.7499999999999998       0.5681571227020035
0.04999999999994355       0.7499999999999991       0.5687296613704861
0.0999999999998871        0.7499999999999987       0.5693252279204438
0                         0.7999999999999997       0.5680726027063462
0.04999999999994385       0.7999999999999992       0.5686904387343704
0.0999999999998877        0.7999999999999986       0.569344032252259
0.14999999999988647       0.649999999999998        0.5702595007438982
0.19999999999988702       0.6499999999999975       0.5706865601713624
0.14999999999988706       0.699999999999998        0.570017984483612
0.19999999999988763       0.6999999999999974       0.5705240982368515
0.24999999999988637       0.5499999999999969       0.5676559809333745
0.2999999999998869        0.5499999999999963       0.5638009752923796
0.24999999999988698       0.5999999999999969       0.5702085490378872
0.2999999999998875        0.5999999999999963       0.5692127385610103
0.34999999999988635       0.44999999999999574      0.478923243204444
0.39999999999988695       0.44999999999999524      0.429306119077434
0.34999999999988696       0.4999999999999957       0.5332684868643652
0.39999999999988756       0.49999999999999517      0.5130293293656508
0.4499999999998863        0.3499999999999946       0.07085072292068056
0.49999999999988687       0.349999999999994        0.043016989724715904
0.44999999999988693       0.39999999999999464      0.2230775021458303
0.4999999999998875        0.39999999999999397      0.1927396924817121
0.5499999999998864        0.24999999999999337      -0.06781259505242508
0.5999999999998868        0.2499999999999928       -0.03833099113391704
0.5499999999998869        0.2999999999999934       -0.03210899351510561
0.5999999999998875        0.29999999999999283      0.007740226937620504
0.6499999999998863        0.1499999999999921       0.03590753898419152
0.6999999999998869        0.14999999999999147      0.17419144435586995
0.6499999999998869        0.19999999999999216      0.01756886219827794
0.6999999999998875        0.19999999999999152      0.1516476127279567
0.7499999999998858        0                        0.5008397606131244
0.7999999999998864        0                        0.5402096322582091
0.7499999999998864        0.049999999999995416     0.44842654832945456
0.7999999999998869        0.04999999999999512      0.5178399428927553
0.749999999999887         0.09999999999999083      0.38989674975308913
0.7999999999998875        0.09999999999999024      0.49204430425077306
0                         0.8499999999999996       0.5681228123529619
0.04999999999994416       0.8499999999999992       0.5687759880702141
0.09999999999988832       0.8499999999999985       0.569518723887769
0                         0.8999999999999997       0.5683275467051522
0.04999999999994447       0.8999999999999991       0.568959893799801
0.09999999999988894       0.8999999999999986       0.5697394150074364
0.14999999999988767       0.749999999999998        0.5698911371583028
0.19999999999988824       0.7499999999999974       0.5704151306202937
0.14999999999988828       0.799999999999998        0.5699756249927888
0.19999999999988885       0.7999999999999975       0.5705420355628805
0.2499999999998876        0.6499999999999968       0.570963079834215
0.29999999999988813       0.6499999999999964       0.5710416951536642
0.2499999999998882        0.6999999999999968       0.5710100535717683
0.29999999999988874       0.6999999999999963       0.5714444267647079
0.3499999999998875        0.5499999999999957       0.5579610327972154
0.3999999999998881        0.5499999999999952       0.5509444293747251
0.3499999999998881        0.5999999999999958       0.5675162535142412
0.3999999999998887        0.5999999999999952       0.5653591703804632
0.4499999999998875        0.4499999999999946       0.3864729164236218
0.4999999999998881        0.44999999999999407      0.365847144803961
0.4499999999998881        0.49999999999999467      0.494981840853875
0.49999999999988864       0.4999999999999941       0.4858902287001317
0.5499999999998875        0.3499999999999934       0.05450502975744396
0.5999999999998881        0.3499999999999929       0.1077346107136636
0.549999999999888         0.39999999999999347      0.2059221903918647
0.5999999999998886        0.3999999999999929       0.2601270402795979
0.6499999999998874        0.24999999999999217      0.035984438304216555
0.699999999999888         0.24999999999999156      0.17390443328710964
0.649999999999888         0.2999999999999922       0.09711088076794988
0.6999999999998886        0.2999999999999916       0.2392636262410996
0.7499999999998874        0.14999999999999086      0.3437609842547298
0.799999999999888         0.1499999999999903       0.47049873327723646
0.7499999999998881        0.19999999999999094      0.32608084033504975
0.7999999999998886        0.19999999999999035      0.46177764696681933
0.849999999999887         0                        0.5586012441231208
0.8999999999998876        0                        0.565615252458286
0.8499999999998875        0.04999999999999482      0.5503240617029497
0.8999999999998881        0.04999999999999452      0.5627936846726681
0.8499999999998881        0.09999999999998964      0.5408741450558893
0.8999999999998887        0.09999999999998904      0.5596670154784483
0                         0.9499999999999997       0.5686770135400233
0.04999999999994478       0.9499999999999992       0.5691432970543672
0.09999999999988957       0.9499999999999986       0.5696992383470799
0                         0.9999999999999997       0.5689158166469411
0.04999999999994509       0.9999999999999991       0.5687676150081515
0.09999999999989018       0.9999999999999987       0.5683305864246063
0.1499999999998889        0.8499999999999981       0.5702658040369152
0.19999999999988943       0.8499999999999974       0.5709205880369688
0.1499999999998895        0.899999999999998        0.5705342490455959
0.19999999999989004       0.8999999999999975       0.571195321211612
0.24999999999988876       0.7499999999999969       0.5709489389056637
0.2999999999998893        0.7499999999999962       0.5715013853623745
0.24999999999988937       0.7999999999999969       0.5710864602872326
0.29999999999988985       0.7999999999999963       0.5716456205561244
0.34999999999988873       0.6499999999999958       0.5708455769050331
0.39999999999988933       0.6499999999999952       0.5703841310227415
0.3499999999998893        0.6999999999999957       0.5717298298117766
0.3999999999998899        0.6999999999999952       0.5717852751792671
0.4499999999998887        0.5499999999999946       0.5446426511345188
0.49999999999988926       0.549999999999994        0.5413546475023672
0.44999999999988927       0.5999999999999945       0.5633350907473972
0.49999999999988987       0.599999999999994        0.5621443030947512
0.5499999999998886        0.4499999999999935       0.37487220523859677
0.5999999999998892        0.44999999999999285      0.40972033412319464
0.5499999999998892        0.49999999999999345      0.48963329698521124
0.5999999999998897        0.4999999999999928       0.5043040182314665
0.6499999999998886        0.34999999999999226      0.207547526935545
0.6999999999998892        0.34999999999999165      0.33557850681012885
0.6499999999998891        0.3999999999999923       0.34433786051115584
0.6999999999998897        0.3999999999999917       0.4328701589386038
0.7499999999998886        0.249999999999991        0.3431637493062104
0.7999999999998892        0.24999999999999042      0.46987285199869394
0.7499999999998892        0.29999999999999105      0.38898260577025656
0.7999999999998898        0.2999999999999905       0.49095662409598934
0.8499999999998886        0.14999999999998967      0.5329551263074266
0.8999999999998892        0.14999999999998906      0.5570733249536473
0.8499999999998892        0.1999999999999897       0.529661254343175
0.8999999999998898        0.19999999999998908      0.5559370507032498
0.9499999999998882        0                        0.5676747833596623
0.9999999999998888        0                        0.5677182326512149
0.9499999999998887        0.0499999999999942       0.5667167810462449
0.9999999999998893        0.04999999999999388      0.5671697376299691
0.9499999999998893        0.0999999999999884       0.5657376457725258
0.9999999999998899        0.09999999999998777      0.5667285628586767
0                         1.0499999999999996       0.5683135808770561
0.049999999999945394      1.049999999999999        0.5664478830008326
0.09999999999989079       1.0499999999999985       0.5631799093002676
0                         1.0999999999999996       0.5652907245132651
0.049999999999945706      1.099999999999999        0.55892371098373
0.09999999999989141       1.0999999999999983       0.5481568870834351
0.1499999999998901        0.949999999999998        0.5702199996922331
0.19999999999989065       0.9499999999999975       0.5705506725845334
0.14999999999989072       0.9999999999999981       0.5675523922437952
0.19999999999989124       0.9999999999999976       0.5664498269942005
0.24999999999988998       0.8499999999999969       0.5714867839176333
0.29999999999989047       0.8499999999999963       0.571984181356241
0.2499999999998906        0.899999999999997        0.5716984455937587
0.29999999999989113       0.8999999999999965       0.5720799348091329
0.3499999999998899        0.7499999999999958       0.5719466017797262
0.3999999999998905        0.7499999999999951       0.5721603832225027
0.3499999999998905        0.7999999999999957       0.5720956163697754
0.3999999999998911        0.7999999999999952       0.5723194369283433
0.4499999999998899        0.6499999999999946       0.569801010865461
0.4999999999998904        0.649999999999994        0.5692862161723187
0.4499999999998905        0.6999999999999946       0.5716156997934474
0.49999999999989103       0.6999999999999941       0.5712782143169138
0.5499999999998898        0.5499999999999935       0.5424064462034813
0.5999999999998903        0.5499999999999928       0.5471598925347209
0.5499999999998904        0.5999999999999934       0.5621795519382127
0.5999999999998908        0.5999999999999929       0.5632538365909824
0.6499999999998898        0.4499999999999923       0.45771512421460825
0.6999999999998905        0.44999999999999174      0.5029972516890758
0.6499999999998904        0.4999999999999923       0.5238391007370505
0.6999999999998912        0.4999999999999918       0.5418181898545507
0.7499999999998898        0.34999999999999104      0.4474304887898422
0.7999999999998904        0.34999999999999043      0.5164658135324883
0.7499999999998903        0.39999999999999103      0.499753752617815
0.7999999999998909        0.39999999999999036      0.5385525507467114
0.8499999999998897        0.24999999999998979      0.5324269511252233
0.8999999999998903        0.24999999999998915      0.556638365234024
0.8499999999998904        0.29999999999998983      0.5398654285709084
0.8999999999998909        0.2999999999999892       0.5587507996041633
0.9499999999998898        0.14999999999998845      0.5649499740715678
0.9999999999998904        0.14999999999998784      0.5664509875809365
0.9499999999998904        0.1999999999999885       0.5645505612804497
0.999999999999891         0.1999999999999879       0.5662601302408932
1.0499999999998892        0                        0.5671286103354422
1.09999999999989          0                        0.5664449215087414
1.04999999999989          0.049999999999993584     0.5665698282072329
1.0999999999998904        0.049999999999993286     0.5658135489690382
1.0499999999998906        0.09999999999998717      0.5661873294755471
1.099999999999891         0.09999999999998657      0.5653533128447288
0                         1.1499999999999995       0.557344466663016
0.049999999999946004      1.149999999999999        0.5406779246310367
0.09999999999989201       1.1499999999999986       0.5125158032972907
0                         1.1999999999999995       0.5411064160109986
0.0499999999999463        1.199999999999999        0.5039743053051299
0.0999999999998926        1.1999999999999986       0.44284988144301474
0.14999999999989133       1.049999999999998        0.5585634784877554
0.19999999999989185       1.0499999999999976       0.553171864627912
0.14999999999989194       1.0999999999999979       0.5331085642579206
0.19999999999989246       1.0999999999999974       0.515970396317396
0.2499999999998912        0.9499999999999971       0.5707170916427792
0.2999999999998917        0.9499999999999964       0.5708667890138112
0.24999999999989175       0.9999999999999969       0.5653568311339611
0.2999999999998923        0.9999999999999962       0.5648028190699673
0.34999999999989106       0.8499999999999959       0.5723585656096423
0.39999999999989166       0.8499999999999952       0.5725526923676411
0.3499999999998916        0.8999999999999959       0.5723747688883895
0.39999999999989216       0.8999999999999952       0.5726019797816536
0.44999999999989104       0.7499999999999946       0.5721078651156026
0.49999999999989164       0.749999999999994        0.5718059097561283
0.44999999999989165       0.7999999999999946       0.572278518980597
0.4999999999998922        0.799999999999994        0.5719695222907024
0.549999999999891         0.6499999999999935       0.5689485352875185
0.5999999999998915        0.6499999999999928       0.568738901913675
0.5499999999998916        0.6999999999999935       0.5708061612415587
0.5999999999998922        0.6999999999999929       0.5701875556792683
0.649999999999891         0.5499999999999923       0.5535539955233141
0.6999999999998918        0.5499999999999918       0.5593746324465005
0.6499999999998916        0.5999999999999923       0.564764720568447
0.6999999999998924        0.5999999999999919       0.5660058446214894
0.7499999999998909        0.4499999999999911       0.5351751182552718
0.7999999999998915        0.4499999999999904       0.5534624882773972
0.7499999999998916        0.4999999999999911       0.554521382042353
0.799999999999892         0.49999999999999045      0.5616177435131021
0.8499999999998911        0.3499999999999898       0.5488918403580827
0.8999999999998916        0.34999999999998926      0.5613358265603218
0.8499999999998915        0.3999999999999898       0.5566736534200694
0.8999999999998922        0.3999999999999893       0.5634643479327165
0.9499999999998909        0.24999999999998856      0.5645619318941676
0.9999999999998915        0.24999999999998798      0.5660431329386085
0.9499999999998915        0.2999999999999886       0.5648302433123312
0.9999999999998921        0.29999999999998805      0.5657170846081818
1.049999999999891         0.14999999999998725      0.5660058595072036
1.0999999999998915        0.14999999999998664      0.5650578162097909
1.0499999999998915        0.1999999999999873       0.565824157037399
1.099999999999892         0.1999999999999867       0.5647618065520219
1.1499999999998907        0                        0.5658940471102004
1.1999999999998912        0                        0.5655282308791924
1.149999999999891         0.04999999999999299      0.565213294772563
1.1999999999998918        0.04999999999999269      0.5648139923919008
1.1499999999998916        0.09999999999998598      0.5646471218310928
1.1999999999998923        0.09999999999998538      0.5641563004403257
0                         1.2499999999999996       0.5139005674366873
0.049999999999946615      1.2499999999999991       0.4437361341757102
0.09999999999989323       1.2499999999999987       0.3370607944659529
0                         1.2999999999999994       0.47674229404700663
0.04999999999994692       1.299999999999999        0.3667708400913924
0.09999999999989384       1.2999999999999985       0.22132678290116634
0.14999999999989252       1.149999999999998        0.4732710673245472
0.19999999999989304       1.1499999999999975       0.4299420378991798
0.1499999999998931        1.199999999999998        0.3631397295376626
0.1999999999998936        1.1999999999999975       0.2846678429229794
0.24999999999989236       1.0499999999999967       0.5483107239903956
0.2999999999998929        1.0499999999999963       0.5456687945351216
0.24999999999989297       1.0999999999999968       0.5008597356190252
0.2999999999998935        1.099999999999996        0.49259363010536733
0.34999999999989223       0.949999999999996        0.5711496053642054
0.3999999999998928        0.9499999999999953       0.5716254408626458
0.34999999999989284       0.9999999999999958       0.5652127509736157
0.39999999999989333       0.9999999999999953       0.5666082818470729
0.44999999999989215       0.8499999999999946       0.5725277450469913
0.4999999999998927        0.8499999999999941       0.5722429217281527
0.4499999999998927        0.8999999999999947       0.5727122127357528
0.4999999999998932        0.8999999999999941       0.5725802744855073
0.5499999999998921        0.7499999999999936       0.5712723471327799
0.5999999999998927        0.7499999999999929       0.5705113478958518
0.5499999999998928        0.7999999999999935       0.5714119942250604
0.5999999999998933        0.7999999999999929       0.570611154804426
0.649999999999892         0.6499999999999924       0.5685108863947346
0.6999999999998927        0.6499999999999918       0.5680761938849693
0.6499999999998926        0.6999999999999923       0.5694019851328952
0.6999999999998929        0.6999999999999917       0.5684099734797455
0.7499999999998921        0.5499999999999912       0.5633051802114134
0.7999999999998925        0.5499999999999905       0.5651379765908637
0.7499999999998926        0.5999999999999912       0.5664918535635542
0.7999999999998929        0.5999999999999905       0.5661195777583272
0.849999999999892         0.44999999999998985      0.5618647174126271
0.8999999999998927        0.4499999999999893       0.5646709425153714
0.8499999999998926        0.4999999999999899       0.564531325257883
0.8999999999998931        0.49999999999998934      0.5649700595157051
0.949999999999892         0.34999999999998865      0.5650989094145322
0.9999999999998926        0.34999999999998804      0.5652296155686259
0.9499999999998927        0.3999999999999887       0.5651223209028076
0.9999999999998932        0.39999999999998803      0.5645630467913101
1.0499999999998921        0.24999999999998737      0.5654801322923709
1.0999999999998926        0.24999999999998676      0.564310648291127
1.0499999999998928        0.29999999999998744      0.5649161956130113
1.0999999999998933        0.29999999999998683      0.5636397633165813
1.149999999999892         0.14999999999998603      0.5641922325878721
1.1999999999998927        0.14999999999998545      0.5635730512130012
1.1499999999998924        0.1999999999999861       0.5637513125053139
1.1999999999998932        0.19999999999998552      0.5630114181906694
1.2499999999998916        0                        0.5653839349490789
1.2999999999998924        0                        0.5654614772693944
1.2499999999998923        0.049999999999992384     0.5646663751392748
1.2999999999998928        0.04999999999999207      0.564764044427328
1.249999999999893         0.09999999999998477      0.5639691991890624
1.2999999999998935        0.09999999999998414      0.5640670284246011
0                         1.3499999999999994       0.43605008484751545
0.04999999999994723       1.349999999999999        0.29172933159644715
0.09999999999989446       1.3499999999999985       0.1300774082791748
0                         1.3999999999999995       0.40264630661604356
0.049999999999947545      1.399999999999999        0.23767823264297022
0.09999999999989509       1.3999999999999986       0.07589531090766